V -t * -v 1.0a5 -a 0
A -t * -n 1 -p 0 -o 0x7fffffff -c 30 -a 1
A -t * -h 1 -m 1073741823 -s 0
c -t * -i 0 -n Blue
c -t * -i 1 -n Red
n -t * -a 0 -s 0 -S UP -v circle -c black -i black
n -t * -a 1 -s 1 -S UP -v circle -c black -i black
l -t * -s 0 -d 1 -S UP -r 4000000 -D 0.10000000000000001 -c black
+ -t 0.5 -s 0 -d 1 -p tcp -e 40 -c 0 -i 0 -a 0 -x {0.0 1.0 0 ------- null}
- -t 0.5 -s 0 -d 1 -p tcp -e 40 -c 0 -i 0 -a 0 -x {0.0 1.0 0 ------- null}
h -t 0.5 -s 0 -d 1 -p tcp -e 40 -c 0 -i 0 -a 0 -x {0.0 1.0 -1 ------- null}
+ -t 0.5 -s 0 -d 1 -p cbr -e 500 -c 1 -i 1 -a 1 -x {0.1 1.1 0 ------- null}
- -t 0.50008 -s 0 -d 1 -p cbr -e 500 -c 1 -i 1 -a 1 -x {0.1 1.1 0 ------- null}
h -t 0.50008 -s 0 -d 1 -p cbr -e 500 -c 1 -i 1 -a 1 -x {0.1 1.1 -1 ------- null}
+ -t 0.501 -s 0 -d 1 -p cbr -e 500 -c 1 -i 2 -a 1 -x {0.1 1.1 1 ------- null}
- -t 0.50108 -s 0 -d 1 -p cbr -e 500 -c 1 -i 2 -a 1 -x {0.1 1.1 1 ------- null}
h -t 0.50108 -s 0 -d 1 -p cbr -e 500 -c 1 -i 2 -a 1 -x {0.1 1.1 -1 ------- null}
+ -t 0.502 -s 0 -d 1 -p cbr -e 500 -c 1 -i 3 -a 1 -x {0.1 1.1 2 ------- null}
- -t 0.50208 -s 0 -d 1 -p cbr -e 500 -c 1 -i 3 -a 1 -x {0.1 1.1 2 ------- null}
h -t 0.50208 -s 0 -d 1 -p cbr -e 500 -c 1 -i 3 -a 1 -x {0.1 1.1 -1 ------- null}
+ -t 0.503 -s 0 -d 1 -p cbr -e 500 -c 1 -i 4 -a 1 -x {0.1 1.1 3 ------- null}
- -t 0.50308 -s 0 -d 1 -p cbr -e 500 -c 1 -i 4 -a 1 -x {0.1 1.1 3 ------- null}
h -t 0.50308 -s 0 -d 1 -p cbr -e 500 -c 1 -i 4 -a 1 -x {0.1 1.1 -1 ------- null}
+ -t 0.504 -s 0 -d 1 -p cbr -e 500 -c 1 -i 5 -a 1 -x {0.1 1.1 4 ------- null}
- -t 0.50408 -s 0 -d 1 -p cbr -e 500 -c 1 -i 5 -a 1 -x {0.1 1.1 4 ------- null}
h -t 0.50408 -s 0 -d 1 -p cbr -e 500 -c 1 -i 5 -a 1 -x {0.1 1.1 -1 ------- null}
+ -t 0.505 -s 0 -d 1 -p cbr -e 500 -c 1 -i 6 -a 1 -x {0.1 1.1 5 ------- null}
- -t 0.50508 -s 0 -d 1 -p cbr -e 500 -c 1 -i 6 -a 1 -x {0.1 1.1 5 ------- null}
h -t 0.50508 -s 0 -d 1 -p cbr -e 500 -c 1 -i 6 -a 1 -x {0.1 1.1 -1 ------- null}
+ -t 0.506 -s 0 -d 1 -p cbr -e 500 -c 1 -i 7 -a 1 -x {0.1 1.1 6 ------- null}
- -t 0.50608 -s 0 -d 1 -p cbr -e 500 -c 1 -i 7 -a 1 -x {0.1 1.1 6 ------- null}
h -t 0.50608 -s 0 -d 1 -p cbr -e 500 -c 1 -i 7 -a 1 -x {0.1 1.1 -1 ------- null}
+ -t 0.507 -s 0 -d 1 -p cbr -e 500 -c 1 -i 8 -a 1 -x {0.1 1.1 7 ------- null}
- -t 0.50708 -s 0 -d 1 -p cbr -e 500 -c 1 -i 8 -a 1 -x {0.1 1.1 7 ------- null}
h -t 0.50708 -s 0 -d 1 -p cbr -e 500 -c 1 -i 8 -a 1 -x {0.1 1.1 -1 ------- null}
+ -t 0.508 -s 0 -d 1 -p cbr -e 500 -c 1 -i 9 -a 1 -x {0.1 1.1 8 ------- null}
- -t 0.50808 -s 0 -d 1 -p cbr -e 500 -c 1 -i 9 -a 1 -x {0.1 1.1 8 ------- null}
h -t 0.50808 -s 0 -d 1 -p cbr -e 500 -c 1 -i 9 -a 1 -x {0.1 1.1 -1 ------- null}
+ -t 0.509 -s 0 -d 1 -p cbr -e 500 -c 1 -i 10 -a 1 -x {0.1 1.1 9 ------- null}
- -t 0.50908 -s 0 -d 1 -p cbr -e 500 -c 1 -i 10 -a 1 -x {0.1 1.1 9 ------- null}
h -t 0.50908 -s 0 -d 1 -p cbr -e 500 -c 1 -i 10 -a 1 -x {0.1 1.1 -1 ------- null}
+ -t 0.51 -s 0 -d 1 -p cbr -e 500 -c 1 -i 11 -a 1 -x {0.1 1.1 10 ------- null}
- -t 0.51008 -s 0 -d 1 -p cbr -e 500 -c 1 -i 11 -a 1 -x {0.1 1.1 10 ------- null}
h -t 0.51008 -s 0 -d 1 -p cbr -e 500 -c 1 -i 11 -a 1 -x {0.1 1.1 -1 ------- null}
+ -t 0.511 -s 0 -d 1 -p cbr -e 500 -c 1 -i 12 -a 1 -x {0.1 1.1 11 ------- null}
- -t 0.51108 -s 0 -d 1 -p cbr -e 500 -c 1 -i 12 -a 1 -x {0.1 1.1 11 ------- null}
h -t 0.51108 -s 0 -d 1 -p cbr -e 500 -c 1 -i 12 -a 1 -x {0.1 1.1 -1 ------- null}
+ -t 0.512 -s 0 -d 1 -p cbr -e 500 -c 1 -i 13 -a 1 -x {0.1 1.1 12 ------- null}
- -t 0.51208 -s 0 -d 1 -p cbr -e 500 -c 1 -i 13 -a 1 -x {0.1 1.1 12 ------- null}
h -t 0.51208 -s 0 -d 1 -p cbr -e 500 -c 1 -i 13 -a 1 -x {0.1 1.1 -1 ------- null}
+ -t 0.513 -s 0 -d 1 -p cbr -e 500 -c 1 -i 14 -a 1 -x {0.1 1.1 13 ------- null}
- -t 0.51308 -s 0 -d 1 -p cbr -e 500 -c 1 -i 14 -a 1 -x {0.1 1.1 13 ------- null}
h -t 0.51308 -s 0 -d 1 -p cbr -e 500 -c 1 -i 14 -a 1 -x {0.1 1.1 -1 ------- null}
+ -t 0.514 -s 0 -d 1 -p cbr -e 500 -c 1 -i 15 -a 1 -x {0.1 1.1 14 ------- null}
- -t 0.51408 -s 0 -d 1 -p cbr -e 500 -c 1 -i 15 -a 1 -x {0.1 1.1 14 ------- null}
h -t 0.51408 -s 0 -d 1 -p cbr -e 500 -c 1 -i 15 -a 1 -x {0.1 1.1 -1 ------- null}
+ -t 0.515 -s 0 -d 1 -p cbr -e 500 -c 1 -i 16 -a 1 -x {0.1 1.1 15 ------- null}
- -t 0.51508 -s 0 -d 1 -p cbr -e 500 -c 1 -i 16 -a 1 -x {0.1 1.1 15 ------- null}
h -t 0.51508 -s 0 -d 1 -p cbr -e 500 -c 1 -i 16 -a 1 -x {0.1 1.1 -1 ------- null}
+ -t 0.516 -s 0 -d 1 -p cbr -e 500 -c 1 -i 17 -a 1 -x {0.1 1.1 16 ------- null}
- -t 0.51608 -s 0 -d 1 -p cbr -e 500 -c 1 -i 17 -a 1 -x {0.1 1.1 16 ------- null}
h -t 0.51608 -s 0 -d 1 -p cbr -e 500 -c 1 -i 17 -a 1 -x {0.1 1.1 -1 ------- null}
+ -t 0.517 -s 0 -d 1 -p cbr -e 500 -c 1 -i 18 -a 1 -x {0.1 1.1 17 ------- null}
- -t 0.51708 -s 0 -d 1 -p cbr -e 500 -c 1 -i 18 -a 1 -x {0.1 1.1 17 ------- null}
h -t 0.51708 -s 0 -d 1 -p cbr -e 500 -c 1 -i 18 -a 1 -x {0.1 1.1 -1 ------- null}
+ -t 0.518 -s 0 -d 1 -p cbr -e 500 -c 1 -i 19 -a 1 -x {0.1 1.1 18 ------- null}
- -t 0.51808 -s 0 -d 1 -p cbr -e 500 -c 1 -i 19 -a 1 -x {0.1 1.1 18 ------- null}
h -t 0.51808 -s 0 -d 1 -p cbr -e 500 -c 1 -i 19 -a 1 -x {0.1 1.1 -1 ------- null}
+ -t 0.519 -s 0 -d 1 -p cbr -e 500 -c 1 -i 20 -a 1 -x {0.1 1.1 19 ------- null}
- -t 0.51908 -s 0 -d 1 -p cbr -e 500 -c 1 -i 20 -a 1 -x {0.1 1.1 19 ------- null}
h -t 0.51908 -s 0 -d 1 -p cbr -e 500 -c 1 -i 20 -a 1 -x {0.1 1.1 -1 ------- null}
+ -t 0.52 -s 0 -d 1 -p cbr -e 500 -c 1 -i 21 -a 1 -x {0.1 1.1 20 ------- null}
- -t 0.52008 -s 0 -d 1 -p cbr -e 500 -c 1 -i 21 -a 1 -x {0.1 1.1 20 ------- null}
h -t 0.52008 -s 0 -d 1 -p cbr -e 500 -c 1 -i 21 -a 1 -x {0.1 1.1 -1 ------- null}
+ -t 0.521 -s 0 -d 1 -p cbr -e 500 -c 1 -i 22 -a 1 -x {0.1 1.1 21 ------- null}
- -t 0.52108 -s 0 -d 1 -p cbr -e 500 -c 1 -i 22 -a 1 -x {0.1 1.1 21 ------- null}
h -t 0.52108 -s 0 -d 1 -p cbr -e 500 -c 1 -i 22 -a 1 -x {0.1 1.1 -1 ------- null}
+ -t 0.522 -s 0 -d 1 -p cbr -e 500 -c 1 -i 23 -a 1 -x {0.1 1.1 22 ------- null}
- -t 0.52208 -s 0 -d 1 -p cbr -e 500 -c 1 -i 23 -a 1 -x {0.1 1.1 22 ------- null}
h -t 0.52208 -s 0 -d 1 -p cbr -e 500 -c 1 -i 23 -a 1 -x {0.1 1.1 -1 ------- null}
+ -t 0.523 -s 0 -d 1 -p cbr -e 500 -c 1 -i 24 -a 1 -x {0.1 1.1 23 ------- null}
- -t 0.52308 -s 0 -d 1 -p cbr -e 500 -c 1 -i 24 -a 1 -x {0.1 1.1 23 ------- null}
h -t 0.52308 -s 0 -d 1 -p cbr -e 500 -c 1 -i 24 -a 1 -x {0.1 1.1 -1 ------- null}
+ -t 0.524 -s 0 -d 1 -p cbr -e 500 -c 1 -i 25 -a 1 -x {0.1 1.1 24 ------- null}
- -t 0.52408 -s 0 -d 1 -p cbr -e 500 -c 1 -i 25 -a 1 -x {0.1 1.1 24 ------- null}
h -t 0.52408 -s 0 -d 1 -p cbr -e 500 -c 1 -i 25 -a 1 -x {0.1 1.1 -1 ------- null}
+ -t 0.525 -s 0 -d 1 -p cbr -e 500 -c 1 -i 26 -a 1 -x {0.1 1.1 25 ------- null}
- -t 0.52508 -s 0 -d 1 -p cbr -e 500 -c 1 -i 26 -a 1 -x {0.1 1.1 25 ------- null}
h -t 0.52508 -s 0 -d 1 -p cbr -e 500 -c 1 -i 26 -a 1 -x {0.1 1.1 -1 ------- null}
+ -t 0.526 -s 0 -d 1 -p cbr -e 500 -c 1 -i 27 -a 1 -x {0.1 1.1 26 ------- null}
- -t 0.52608 -s 0 -d 1 -p cbr -e 500 -c 1 -i 27 -a 1 -x {0.1 1.1 26 ------- null}
h -t 0.52608 -s 0 -d 1 -p cbr -e 500 -c 1 -i 27 -a 1 -x {0.1 1.1 -1 ------- null}
+ -t 0.527 -s 0 -d 1 -p cbr -e 500 -c 1 -i 28 -a 1 -x {0.1 1.1 27 ------- null}
- -t 0.52708 -s 0 -d 1 -p cbr -e 500 -c 1 -i 28 -a 1 -x {0.1 1.1 27 ------- null}
h -t 0.52708 -s 0 -d 1 -p cbr -e 500 -c 1 -i 28 -a 1 -x {0.1 1.1 -1 ------- null}
+ -t 0.528 -s 0 -d 1 -p cbr -e 500 -c 1 -i 29 -a 1 -x {0.1 1.1 28 ------- null}
- -t 0.52808 -s 0 -d 1 -p cbr -e 500 -c 1 -i 29 -a 1 -x {0.1 1.1 28 ------- null}
h -t 0.52808 -s 0 -d 1 -p cbr -e 500 -c 1 -i 29 -a 1 -x {0.1 1.1 -1 ------- null}
+ -t 0.529 -s 0 -d 1 -p cbr -e 500 -c 1 -i 30 -a 1 -x {0.1 1.1 29 ------- null}
- -t 0.52908 -s 0 -d 1 -p cbr -e 500 -c 1 -i 30 -a 1 -x {0.1 1.1 29 ------- null}
h -t 0.52908 -s 0 -d 1 -p cbr -e 500 -c 1 -i 30 -a 1 -x {0.1 1.1 -1 ------- null}
+ -t 0.53 -s 0 -d 1 -p cbr -e 500 -c 1 -i 31 -a 1 -x {0.1 1.1 30 ------- null}
- -t 0.53008 -s 0 -d 1 -p cbr -e 500 -c 1 -i 31 -a 1 -x {0.1 1.1 30 ------- null}
h -t 0.53008 -s 0 -d 1 -p cbr -e 500 -c 1 -i 31 -a 1 -x {0.1 1.1 -1 ------- null}
+ -t 0.531 -s 0 -d 1 -p cbr -e 500 -c 1 -i 32 -a 1 -x {0.1 1.1 31 ------- null}
- -t 0.53108 -s 0 -d 1 -p cbr -e 500 -c 1 -i 32 -a 1 -x {0.1 1.1 31 ------- null}
h -t 0.53108 -s 0 -d 1 -p cbr -e 500 -c 1 -i 32 -a 1 -x {0.1 1.1 -1 ------- null}
+ -t 0.532 -s 0 -d 1 -p cbr -e 500 -c 1 -i 33 -a 1 -x {0.1 1.1 32 ------- null}
- -t 0.53208 -s 0 -d 1 -p cbr -e 500 -c 1 -i 33 -a 1 -x {0.1 1.1 32 ------- null}
h -t 0.53208 -s 0 -d 1 -p cbr -e 500 -c 1 -i 33 -a 1 -x {0.1 1.1 -1 ------- null}
+ -t 0.533 -s 0 -d 1 -p cbr -e 500 -c 1 -i 34 -a 1 -x {0.1 1.1 33 ------- null}
- -t 0.53308 -s 0 -d 1 -p cbr -e 500 -c 1 -i 34 -a 1 -x {0.1 1.1 33 ------- null}
h -t 0.53308 -s 0 -d 1 -p cbr -e 500 -c 1 -i 34 -a 1 -x {0.1 1.1 -1 ------- null}
+ -t 0.534 -s 0 -d 1 -p cbr -e 500 -c 1 -i 35 -a 1 -x {0.1 1.1 34 ------- null}
- -t 0.53408 -s 0 -d 1 -p cbr -e 500 -c 1 -i 35 -a 1 -x {0.1 1.1 34 ------- null}
h -t 0.53408 -s 0 -d 1 -p cbr -e 500 -c 1 -i 35 -a 1 -x {0.1 1.1 -1 ------- null}
+ -t 0.535 -s 0 -d 1 -p cbr -e 500 -c 1 -i 36 -a 1 -x {0.1 1.1 35 ------- null}
- -t 0.53508 -s 0 -d 1 -p cbr -e 500 -c 1 -i 36 -a 1 -x {0.1 1.1 35 ------- null}
h -t 0.53508 -s 0 -d 1 -p cbr -e 500 -c 1 -i 36 -a 1 -x {0.1 1.1 -1 ------- null}
+ -t 0.536 -s 0 -d 1 -p cbr -e 500 -c 1 -i 37 -a 1 -x {0.1 1.1 36 ------- null}
- -t 0.53608 -s 0 -d 1 -p cbr -e 500 -c 1 -i 37 -a 1 -x {0.1 1.1 36 ------- null}
h -t 0.53608 -s 0 -d 1 -p cbr -e 500 -c 1 -i 37 -a 1 -x {0.1 1.1 -1 ------- null}
+ -t 0.537 -s 0 -d 1 -p cbr -e 500 -c 1 -i 38 -a 1 -x {0.1 1.1 37 ------- null}
- -t 0.53708 -s 0 -d 1 -p cbr -e 500 -c 1 -i 38 -a 1 -x {0.1 1.1 37 ------- null}
h -t 0.53708 -s 0 -d 1 -p cbr -e 500 -c 1 -i 38 -a 1 -x {0.1 1.1 -1 ------- null}
+ -t 0.538 -s 0 -d 1 -p cbr -e 500 -c 1 -i 39 -a 1 -x {0.1 1.1 38 ------- null}
- -t 0.53808 -s 0 -d 1 -p cbr -e 500 -c 1 -i 39 -a 1 -x {0.1 1.1 38 ------- null}
h -t 0.53808 -s 0 -d 1 -p cbr -e 500 -c 1 -i 39 -a 1 -x {0.1 1.1 -1 ------- null}
+ -t 0.539 -s 0 -d 1 -p cbr -e 500 -c 1 -i 40 -a 1 -x {0.1 1.1 39 ------- null}
- -t 0.53908 -s 0 -d 1 -p cbr -e 500 -c 1 -i 40 -a 1 -x {0.1 1.1 39 ------- null}
h -t 0.53908 -s 0 -d 1 -p cbr -e 500 -c 1 -i 40 -a 1 -x {0.1 1.1 -1 ------- null}
+ -t 0.54 -s 0 -d 1 -p cbr -e 500 -c 1 -i 41 -a 1 -x {0.1 1.1 40 ------- null}
- -t 0.54008 -s 0 -d 1 -p cbr -e 500 -c 1 -i 41 -a 1 -x {0.1 1.1 40 ------- null}
h -t 0.54008 -s 0 -d 1 -p cbr -e 500 -c 1 -i 41 -a 1 -x {0.1 1.1 -1 ------- null}
+ -t 0.541 -s 0 -d 1 -p cbr -e 500 -c 1 -i 42 -a 1 -x {0.1 1.1 41 ------- null}
- -t 0.54108 -s 0 -d 1 -p cbr -e 500 -c 1 -i 42 -a 1 -x {0.1 1.1 41 ------- null}
h -t 0.54108 -s 0 -d 1 -p cbr -e 500 -c 1 -i 42 -a 1 -x {0.1 1.1 -1 ------- null}
+ -t 0.542 -s 0 -d 1 -p cbr -e 500 -c 1 -i 43 -a 1 -x {0.1 1.1 42 ------- null}
- -t 0.54208 -s 0 -d 1 -p cbr -e 500 -c 1 -i 43 -a 1 -x {0.1 1.1 42 ------- null}
h -t 0.54208 -s 0 -d 1 -p cbr -e 500 -c 1 -i 43 -a 1 -x {0.1 1.1 -1 ------- null}
+ -t 0.543 -s 0 -d 1 -p cbr -e 500 -c 1 -i 44 -a 1 -x {0.1 1.1 43 ------- null}
- -t 0.54308 -s 0 -d 1 -p cbr -e 500 -c 1 -i 44 -a 1 -x {0.1 1.1 43 ------- null}
h -t 0.54308 -s 0 -d 1 -p cbr -e 500 -c 1 -i 44 -a 1 -x {0.1 1.1 -1 ------- null}
+ -t 0.544 -s 0 -d 1 -p cbr -e 500 -c 1 -i 45 -a 1 -x {0.1 1.1 44 ------- null}
- -t 0.54408 -s 0 -d 1 -p cbr -e 500 -c 1 -i 45 -a 1 -x {0.1 1.1 44 ------- null}
h -t 0.54408 -s 0 -d 1 -p cbr -e 500 -c 1 -i 45 -a 1 -x {0.1 1.1 -1 ------- null}
+ -t 0.545 -s 0 -d 1 -p cbr -e 500 -c 1 -i 46 -a 1 -x {0.1 1.1 45 ------- null}
- -t 0.54508 -s 0 -d 1 -p cbr -e 500 -c 1 -i 46 -a 1 -x {0.1 1.1 45 ------- null}
h -t 0.54508 -s 0 -d 1 -p cbr -e 500 -c 1 -i 46 -a 1 -x {0.1 1.1 -1 ------- null}
+ -t 0.546 -s 0 -d 1 -p cbr -e 500 -c 1 -i 47 -a 1 -x {0.1 1.1 46 ------- null}
- -t 0.54608 -s 0 -d 1 -p cbr -e 500 -c 1 -i 47 -a 1 -x {0.1 1.1 46 ------- null}
h -t 0.54608 -s 0 -d 1 -p cbr -e 500 -c 1 -i 47 -a 1 -x {0.1 1.1 -1 ------- null}
+ -t 0.547 -s 0 -d 1 -p cbr -e 500 -c 1 -i 48 -a 1 -x {0.1 1.1 47 ------- null}
- -t 0.54708 -s 0 -d 1 -p cbr -e 500 -c 1 -i 48 -a 1 -x {0.1 1.1 47 ------- null}
h -t 0.54708 -s 0 -d 1 -p cbr -e 500 -c 1 -i 48 -a 1 -x {0.1 1.1 -1 ------- null}
+ -t 0.548 -s 0 -d 1 -p cbr -e 500 -c 1 -i 49 -a 1 -x {0.1 1.1 48 ------- null}
- -t 0.54808 -s 0 -d 1 -p cbr -e 500 -c 1 -i 49 -a 1 -x {0.1 1.1 48 ------- null}
h -t 0.54808 -s 0 -d 1 -p cbr -e 500 -c 1 -i 49 -a 1 -x {0.1 1.1 -1 ------- null}
+ -t 0.549 -s 0 -d 1 -p cbr -e 500 -c 1 -i 50 -a 1 -x {0.1 1.1 49 ------- null}
- -t 0.54908 -s 0 -d 1 -p cbr -e 500 -c 1 -i 50 -a 1 -x {0.1 1.1 49 ------- null}
h -t 0.54908 -s 0 -d 1 -p cbr -e 500 -c 1 -i 50 -a 1 -x {0.1 1.1 -1 ------- null}
+ -t 0.55 -s 0 -d 1 -p cbr -e 500 -c 1 -i 51 -a 1 -x {0.1 1.1 50 ------- null}
- -t 0.55008 -s 0 -d 1 -p cbr -e 500 -c 1 -i 51 -a 1 -x {0.1 1.1 50 ------- null}
h -t 0.55008 -s 0 -d 1 -p cbr -e 500 -c 1 -i 51 -a 1 -x {0.1 1.1 -1 ------- null}
+ -t 0.551 -s 0 -d 1 -p cbr -e 500 -c 1 -i 52 -a 1 -x {0.1 1.1 51 ------- null}
- -t 0.55108 -s 0 -d 1 -p cbr -e 500 -c 1 -i 52 -a 1 -x {0.1 1.1 51 ------- null}
h -t 0.55108 -s 0 -d 1 -p cbr -e 500 -c 1 -i 52 -a 1 -x {0.1 1.1 -1 ------- null}
+ -t 0.552 -s 0 -d 1 -p cbr -e 500 -c 1 -i 53 -a 1 -x {0.1 1.1 52 ------- null}
- -t 0.55208 -s 0 -d 1 -p cbr -e 500 -c 1 -i 53 -a 1 -x {0.1 1.1 52 ------- null}
h -t 0.55208 -s 0 -d 1 -p cbr -e 500 -c 1 -i 53 -a 1 -x {0.1 1.1 -1 ------- null}
+ -t 0.553 -s 0 -d 1 -p cbr -e 500 -c 1 -i 54 -a 1 -x {0.1 1.1 53 ------- null}
- -t 0.55308 -s 0 -d 1 -p cbr -e 500 -c 1 -i 54 -a 1 -x {0.1 1.1 53 ------- null}
h -t 0.55308 -s 0 -d 1 -p cbr -e 500 -c 1 -i 54 -a 1 -x {0.1 1.1 -1 ------- null}
+ -t 0.554 -s 0 -d 1 -p cbr -e 500 -c 1 -i 55 -a 1 -x {0.1 1.1 54 ------- null}
- -t 0.55408 -s 0 -d 1 -p cbr -e 500 -c 1 -i 55 -a 1 -x {0.1 1.1 54 ------- null}
h -t 0.55408 -s 0 -d 1 -p cbr -e 500 -c 1 -i 55 -a 1 -x {0.1 1.1 -1 ------- null}
+ -t 0.555 -s 0 -d 1 -p cbr -e 500 -c 1 -i 56 -a 1 -x {0.1 1.1 55 ------- null}
- -t 0.55508 -s 0 -d 1 -p cbr -e 500 -c 1 -i 56 -a 1 -x {0.1 1.1 55 ------- null}
h -t 0.55508 -s 0 -d 1 -p cbr -e 500 -c 1 -i 56 -a 1 -x {0.1 1.1 -1 ------- null}
+ -t 0.556 -s 0 -d 1 -p cbr -e 500 -c 1 -i 57 -a 1 -x {0.1 1.1 56 ------- null}
- -t 0.55608 -s 0 -d 1 -p cbr -e 500 -c 1 -i 57 -a 1 -x {0.1 1.1 56 ------- null}
h -t 0.55608 -s 0 -d 1 -p cbr -e 500 -c 1 -i 57 -a 1 -x {0.1 1.1 -1 ------- null}
+ -t 0.557 -s 0 -d 1 -p cbr -e 500 -c 1 -i 58 -a 1 -x {0.1 1.1 57 ------- null}
- -t 0.55708 -s 0 -d 1 -p cbr -e 500 -c 1 -i 58 -a 1 -x {0.1 1.1 57 ------- null}
h -t 0.55708 -s 0 -d 1 -p cbr -e 500 -c 1 -i 58 -a 1 -x {0.1 1.1 -1 ------- null}
+ -t 0.558 -s 0 -d 1 -p cbr -e 500 -c 1 -i 59 -a 1 -x {0.1 1.1 58 ------- null}
- -t 0.55808 -s 0 -d 1 -p cbr -e 500 -c 1 -i 59 -a 1 -x {0.1 1.1 58 ------- null}
h -t 0.55808 -s 0 -d 1 -p cbr -e 500 -c 1 -i 59 -a 1 -x {0.1 1.1 -1 ------- null}
+ -t 0.559 -s 0 -d 1 -p cbr -e 500 -c 1 -i 60 -a 1 -x {0.1 1.1 59 ------- null}
- -t 0.55908 -s 0 -d 1 -p cbr -e 500 -c 1 -i 60 -a 1 -x {0.1 1.1 59 ------- null}
h -t 0.55908 -s 0 -d 1 -p cbr -e 500 -c 1 -i 60 -a 1 -x {0.1 1.1 -1 ------- null}
+ -t 0.56 -s 0 -d 1 -p cbr -e 500 -c 1 -i 61 -a 1 -x {0.1 1.1 60 ------- null}
- -t 0.56008 -s 0 -d 1 -p cbr -e 500 -c 1 -i 61 -a 1 -x {0.1 1.1 60 ------- null}
h -t 0.56008 -s 0 -d 1 -p cbr -e 500 -c 1 -i 61 -a 1 -x {0.1 1.1 -1 ------- null}
+ -t 0.561 -s 0 -d 1 -p cbr -e 500 -c 1 -i 62 -a 1 -x {0.1 1.1 61 ------- null}
- -t 0.56108 -s 0 -d 1 -p cbr -e 500 -c 1 -i 62 -a 1 -x {0.1 1.1 61 ------- null}
h -t 0.56108 -s 0 -d 1 -p cbr -e 500 -c 1 -i 62 -a 1 -x {0.1 1.1 -1 ------- null}
+ -t 0.562 -s 0 -d 1 -p cbr -e 500 -c 1 -i 63 -a 1 -x {0.1 1.1 62 ------- null}
- -t 0.56208 -s 0 -d 1 -p cbr -e 500 -c 1 -i 63 -a 1 -x {0.1 1.1 62 ------- null}
h -t 0.56208 -s 0 -d 1 -p cbr -e 500 -c 1 -i 63 -a 1 -x {0.1 1.1 -1 ------- null}
+ -t 0.563 -s 0 -d 1 -p cbr -e 500 -c 1 -i 64 -a 1 -x {0.1 1.1 63 ------- null}
- -t 0.56308 -s 0 -d 1 -p cbr -e 500 -c 1 -i 64 -a 1 -x {0.1 1.1 63 ------- null}
h -t 0.56308 -s 0 -d 1 -p cbr -e 500 -c 1 -i 64 -a 1 -x {0.1 1.1 -1 ------- null}
+ -t 0.564 -s 0 -d 1 -p cbr -e 500 -c 1 -i 65 -a 1 -x {0.1 1.1 64 ------- null}
- -t 0.56408 -s 0 -d 1 -p cbr -e 500 -c 1 -i 65 -a 1 -x {0.1 1.1 64 ------- null}
h -t 0.56408 -s 0 -d 1 -p cbr -e 500 -c 1 -i 65 -a 1 -x {0.1 1.1 -1 ------- null}
+ -t 0.565 -s 0 -d 1 -p cbr -e 500 -c 1 -i 66 -a 1 -x {0.1 1.1 65 ------- null}
- -t 0.56508 -s 0 -d 1 -p cbr -e 500 -c 1 -i 66 -a 1 -x {0.1 1.1 65 ------- null}
h -t 0.56508 -s 0 -d 1 -p cbr -e 500 -c 1 -i 66 -a 1 -x {0.1 1.1 -1 ------- null}
+ -t 0.566 -s 0 -d 1 -p cbr -e 500 -c 1 -i 67 -a 1 -x {0.1 1.1 66 ------- null}
- -t 0.56608 -s 0 -d 1 -p cbr -e 500 -c 1 -i 67 -a 1 -x {0.1 1.1 66 ------- null}
h -t 0.56608 -s 0 -d 1 -p cbr -e 500 -c 1 -i 67 -a 1 -x {0.1 1.1 -1 ------- null}
+ -t 0.567 -s 0 -d 1 -p cbr -e 500 -c 1 -i 68 -a 1 -x {0.1 1.1 67 ------- null}
- -t 0.56708 -s 0 -d 1 -p cbr -e 500 -c 1 -i 68 -a 1 -x {0.1 1.1 67 ------- null}
h -t 0.56708 -s 0 -d 1 -p cbr -e 500 -c 1 -i 68 -a 1 -x {0.1 1.1 -1 ------- null}
+ -t 0.568 -s 0 -d 1 -p cbr -e 500 -c 1 -i 69 -a 1 -x {0.1 1.1 68 ------- null}
- -t 0.56808 -s 0 -d 1 -p cbr -e 500 -c 1 -i 69 -a 1 -x {0.1 1.1 68 ------- null}
h -t 0.56808 -s 0 -d 1 -p cbr -e 500 -c 1 -i 69 -a 1 -x {0.1 1.1 -1 ------- null}
+ -t 0.569 -s 0 -d 1 -p cbr -e 500 -c 1 -i 70 -a 1 -x {0.1 1.1 69 ------- null}
- -t 0.56908 -s 0 -d 1 -p cbr -e 500 -c 1 -i 70 -a 1 -x {0.1 1.1 69 ------- null}
h -t 0.56908 -s 0 -d 1 -p cbr -e 500 -c 1 -i 70 -a 1 -x {0.1 1.1 -1 ------- null}
+ -t 0.57 -s 0 -d 1 -p cbr -e 500 -c 1 -i 71 -a 1 -x {0.1 1.1 70 ------- null}
- -t 0.57008 -s 0 -d 1 -p cbr -e 500 -c 1 -i 71 -a 1 -x {0.1 1.1 70 ------- null}
h -t 0.57008 -s 0 -d 1 -p cbr -e 500 -c 1 -i 71 -a 1 -x {0.1 1.1 -1 ------- null}
+ -t 0.571 -s 0 -d 1 -p cbr -e 500 -c 1 -i 72 -a 1 -x {0.1 1.1 71 ------- null}
- -t 0.57108 -s 0 -d 1 -p cbr -e 500 -c 1 -i 72 -a 1 -x {0.1 1.1 71 ------- null}
h -t 0.57108 -s 0 -d 1 -p cbr -e 500 -c 1 -i 72 -a 1 -x {0.1 1.1 -1 ------- null}
+ -t 0.572 -s 0 -d 1 -p cbr -e 500 -c 1 -i 73 -a 1 -x {0.1 1.1 72 ------- null}
- -t 0.57208 -s 0 -d 1 -p cbr -e 500 -c 1 -i 73 -a 1 -x {0.1 1.1 72 ------- null}
h -t 0.57208 -s 0 -d 1 -p cbr -e 500 -c 1 -i 73 -a 1 -x {0.1 1.1 -1 ------- null}
+ -t 0.573 -s 0 -d 1 -p cbr -e 500 -c 1 -i 74 -a 1 -x {0.1 1.1 73 ------- null}
- -t 0.57308 -s 0 -d 1 -p cbr -e 500 -c 1 -i 74 -a 1 -x {0.1 1.1 73 ------- null}
h -t 0.57308 -s 0 -d 1 -p cbr -e 500 -c 1 -i 74 -a 1 -x {0.1 1.1 -1 ------- null}
+ -t 0.574 -s 0 -d 1 -p cbr -e 500 -c 1 -i 75 -a 1 -x {0.1 1.1 74 ------- null}
- -t 0.57408 -s 0 -d 1 -p cbr -e 500 -c 1 -i 75 -a 1 -x {0.1 1.1 74 ------- null}
h -t 0.57408 -s 0 -d 1 -p cbr -e 500 -c 1 -i 75 -a 1 -x {0.1 1.1 -1 ------- null}
+ -t 0.575 -s 0 -d 1 -p cbr -e 500 -c 1 -i 76 -a 1 -x {0.1 1.1 75 ------- null}
- -t 0.57508 -s 0 -d 1 -p cbr -e 500 -c 1 -i 76 -a 1 -x {0.1 1.1 75 ------- null}
h -t 0.57508 -s 0 -d 1 -p cbr -e 500 -c 1 -i 76 -a 1 -x {0.1 1.1 -1 ------- null}
+ -t 0.576 -s 0 -d 1 -p cbr -e 500 -c 1 -i 77 -a 1 -x {0.1 1.1 76 ------- null}
- -t 0.57608 -s 0 -d 1 -p cbr -e 500 -c 1 -i 77 -a 1 -x {0.1 1.1 76 ------- null}
h -t 0.57608 -s 0 -d 1 -p cbr -e 500 -c 1 -i 77 -a 1 -x {0.1 1.1 -1 ------- null}
+ -t 0.577 -s 0 -d 1 -p cbr -e 500 -c 1 -i 78 -a 1 -x {0.1 1.1 77 ------- null}
- -t 0.57708 -s 0 -d 1 -p cbr -e 500 -c 1 -i 78 -a 1 -x {0.1 1.1 77 ------- null}
h -t 0.57708 -s 0 -d 1 -p cbr -e 500 -c 1 -i 78 -a 1 -x {0.1 1.1 -1 ------- null}
+ -t 0.578 -s 0 -d 1 -p cbr -e 500 -c 1 -i 79 -a 1 -x {0.1 1.1 78 ------- null}
- -t 0.57808 -s 0 -d 1 -p cbr -e 500 -c 1 -i 79 -a 1 -x {0.1 1.1 78 ------- null}
h -t 0.57808 -s 0 -d 1 -p cbr -e 500 -c 1 -i 79 -a 1 -x {0.1 1.1 -1 ------- null}
+ -t 0.579 -s 0 -d 1 -p cbr -e 500 -c 1 -i 80 -a 1 -x {0.1 1.1 79 ------- null}
- -t 0.57908 -s 0 -d 1 -p cbr -e 500 -c 1 -i 80 -a 1 -x {0.1 1.1 79 ------- null}
h -t 0.57908 -s 0 -d 1 -p cbr -e 500 -c 1 -i 80 -a 1 -x {0.1 1.1 -1 ------- null}
+ -t 0.58 -s 0 -d 1 -p cbr -e 500 -c 1 -i 81 -a 1 -x {0.1 1.1 80 ------- null}
- -t 0.58008 -s 0 -d 1 -p cbr -e 500 -c 1 -i 81 -a 1 -x {0.1 1.1 80 ------- null}
h -t 0.58008 -s 0 -d 1 -p cbr -e 500 -c 1 -i 81 -a 1 -x {0.1 1.1 -1 ------- null}
+ -t 0.581 -s 0 -d 1 -p cbr -e 500 -c 1 -i 82 -a 1 -x {0.1 1.1 81 ------- null}
- -t 0.58108 -s 0 -d 1 -p cbr -e 500 -c 1 -i 82 -a 1 -x {0.1 1.1 81 ------- null}
h -t 0.58108 -s 0 -d 1 -p cbr -e 500 -c 1 -i 82 -a 1 -x {0.1 1.1 -1 ------- null}
+ -t 0.582 -s 0 -d 1 -p cbr -e 500 -c 1 -i 83 -a 1 -x {0.1 1.1 82 ------- null}
- -t 0.58208 -s 0 -d 1 -p cbr -e 500 -c 1 -i 83 -a 1 -x {0.1 1.1 82 ------- null}
h -t 0.58208 -s 0 -d 1 -p cbr -e 500 -c 1 -i 83 -a 1 -x {0.1 1.1 -1 ------- null}
+ -t 0.583 -s 0 -d 1 -p cbr -e 500 -c 1 -i 84 -a 1 -x {0.1 1.1 83 ------- null}
- -t 0.58308 -s 0 -d 1 -p cbr -e 500 -c 1 -i 84 -a 1 -x {0.1 1.1 83 ------- null}
h -t 0.58308 -s 0 -d 1 -p cbr -e 500 -c 1 -i 84 -a 1 -x {0.1 1.1 -1 ------- null}
+ -t 0.584 -s 0 -d 1 -p cbr -e 500 -c 1 -i 85 -a 1 -x {0.1 1.1 84 ------- null}
- -t 0.58408 -s 0 -d 1 -p cbr -e 500 -c 1 -i 85 -a 1 -x {0.1 1.1 84 ------- null}
h -t 0.58408 -s 0 -d 1 -p cbr -e 500 -c 1 -i 85 -a 1 -x {0.1 1.1 -1 ------- null}
+ -t 0.585 -s 0 -d 1 -p cbr -e 500 -c 1 -i 86 -a 1 -x {0.1 1.1 85 ------- null}
- -t 0.58508 -s 0 -d 1 -p cbr -e 500 -c 1 -i 86 -a 1 -x {0.1 1.1 85 ------- null}
h -t 0.58508 -s 0 -d 1 -p cbr -e 500 -c 1 -i 86 -a 1 -x {0.1 1.1 -1 ------- null}
+ -t 0.586 -s 0 -d 1 -p cbr -e 500 -c 1 -i 87 -a 1 -x {0.1 1.1 86 ------- null}
- -t 0.58608 -s 0 -d 1 -p cbr -e 500 -c 1 -i 87 -a 1 -x {0.1 1.1 86 ------- null}
h -t 0.58608 -s 0 -d 1 -p cbr -e 500 -c 1 -i 87 -a 1 -x {0.1 1.1 -1 ------- null}
+ -t 0.587 -s 0 -d 1 -p cbr -e 500 -c 1 -i 88 -a 1 -x {0.1 1.1 87 ------- null}
- -t 0.58708 -s 0 -d 1 -p cbr -e 500 -c 1 -i 88 -a 1 -x {0.1 1.1 87 ------- null}
h -t 0.58708 -s 0 -d 1 -p cbr -e 500 -c 1 -i 88 -a 1 -x {0.1 1.1 -1 ------- null}
+ -t 0.588 -s 0 -d 1 -p cbr -e 500 -c 1 -i 89 -a 1 -x {0.1 1.1 88 ------- null}
- -t 0.58808 -s 0 -d 1 -p cbr -e 500 -c 1 -i 89 -a 1 -x {0.1 1.1 88 ------- null}
h -t 0.58808 -s 0 -d 1 -p cbr -e 500 -c 1 -i 89 -a 1 -x {0.1 1.1 -1 ------- null}
+ -t 0.589 -s 0 -d 1 -p cbr -e 500 -c 1 -i 90 -a 1 -x {0.1 1.1 89 ------- null}
- -t 0.58908 -s 0 -d 1 -p cbr -e 500 -c 1 -i 90 -a 1 -x {0.1 1.1 89 ------- null}
h -t 0.58908 -s 0 -d 1 -p cbr -e 500 -c 1 -i 90 -a 1 -x {0.1 1.1 -1 ------- null}
+ -t 0.59 -s 0 -d 1 -p cbr -e 500 -c 1 -i 91 -a 1 -x {0.1 1.1 90 ------- null}
- -t 0.59008 -s 0 -d 1 -p cbr -e 500 -c 1 -i 91 -a 1 -x {0.1 1.1 90 ------- null}
h -t 0.59008 -s 0 -d 1 -p cbr -e 500 -c 1 -i 91 -a 1 -x {0.1 1.1 -1 ------- null}
+ -t 0.591 -s 0 -d 1 -p cbr -e 500 -c 1 -i 92 -a 1 -x {0.1 1.1 91 ------- null}
- -t 0.59108 -s 0 -d 1 -p cbr -e 500 -c 1 -i 92 -a 1 -x {0.1 1.1 91 ------- null}
h -t 0.59108 -s 0 -d 1 -p cbr -e 500 -c 1 -i 92 -a 1 -x {0.1 1.1 -1 ------- null}
+ -t 0.592 -s 0 -d 1 -p cbr -e 500 -c 1 -i 93 -a 1 -x {0.1 1.1 92 ------- null}
- -t 0.59208 -s 0 -d 1 -p cbr -e 500 -c 1 -i 93 -a 1 -x {0.1 1.1 92 ------- null}
h -t 0.59208 -s 0 -d 1 -p cbr -e 500 -c 1 -i 93 -a 1 -x {0.1 1.1 -1 ------- null}
+ -t 0.593 -s 0 -d 1 -p cbr -e 500 -c 1 -i 94 -a 1 -x {0.1 1.1 93 ------- null}
- -t 0.59308 -s 0 -d 1 -p cbr -e 500 -c 1 -i 94 -a 1 -x {0.1 1.1 93 ------- null}
h -t 0.59308 -s 0 -d 1 -p cbr -e 500 -c 1 -i 94 -a 1 -x {0.1 1.1 -1 ------- null}
+ -t 0.594 -s 0 -d 1 -p cbr -e 500 -c 1 -i 95 -a 1 -x {0.1 1.1 94 ------- null}
- -t 0.59408 -s 0 -d 1 -p cbr -e 500 -c 1 -i 95 -a 1 -x {0.1 1.1 94 ------- null}
h -t 0.59408 -s 0 -d 1 -p cbr -e 500 -c 1 -i 95 -a 1 -x {0.1 1.1 -1 ------- null}
+ -t 0.595 -s 0 -d 1 -p cbr -e 500 -c 1 -i 96 -a 1 -x {0.1 1.1 95 ------- null}
- -t 0.59508 -s 0 -d 1 -p cbr -e 500 -c 1 -i 96 -a 1 -x {0.1 1.1 95 ------- null}
h -t 0.59508 -s 0 -d 1 -p cbr -e 500 -c 1 -i 96 -a 1 -x {0.1 1.1 -1 ------- null}
+ -t 0.596 -s 0 -d 1 -p cbr -e 500 -c 1 -i 97 -a 1 -x {0.1 1.1 96 ------- null}
- -t 0.59608 -s 0 -d 1 -p cbr -e 500 -c 1 -i 97 -a 1 -x {0.1 1.1 96 ------- null}
h -t 0.59608 -s 0 -d 1 -p cbr -e 500 -c 1 -i 97 -a 1 -x {0.1 1.1 -1 ------- null}
+ -t 0.597 -s 0 -d 1 -p cbr -e 500 -c 1 -i 98 -a 1 -x {0.1 1.1 97 ------- null}
- -t 0.59708 -s 0 -d 1 -p cbr -e 500 -c 1 -i 98 -a 1 -x {0.1 1.1 97 ------- null}
h -t 0.59708 -s 0 -d 1 -p cbr -e 500 -c 1 -i 98 -a 1 -x {0.1 1.1 -1 ------- null}
+ -t 0.598 -s 0 -d 1 -p cbr -e 500 -c 1 -i 99 -a 1 -x {0.1 1.1 98 ------- null}
- -t 0.59808 -s 0 -d 1 -p cbr -e 500 -c 1 -i 99 -a 1 -x {0.1 1.1 98 ------- null}
h -t 0.59808 -s 0 -d 1 -p cbr -e 500 -c 1 -i 99 -a 1 -x {0.1 1.1 -1 ------- null}
+ -t 0.599 -s 0 -d 1 -p cbr -e 500 -c 1 -i 100 -a 1 -x {0.1 1.1 99 ------- null}
- -t 0.59908 -s 0 -d 1 -p cbr -e 500 -c 1 -i 100 -a 1 -x {0.1 1.1 99 ------- null}
h -t 0.59908 -s 0 -d 1 -p cbr -e 500 -c 1 -i 100 -a 1 -x {0.1 1.1 -1 ------- null}
+ -t 0.6 -s 0 -d 1 -p cbr -e 500 -c 1 -i 101 -a 1 -x {0.1 1.1 100 ------- null}
r -t 0.60008 -s 0 -d 1 -p tcp -e 40 -c 0 -i 0 -a 0 -x {0.0 1.0 0 ------- null}
+ -t 0.60008 -s 1 -d 0 -p ack -e 40 -c 0 -i 102 -a 0 -x {1.0 0.0 0 ------- null}
- -t 0.60008 -s 1 -d 0 -p ack -e 40 -c 0 -i 102 -a 0 -x {1.0 0.0 0 ------- null}
h -t 0.60008 -s 1 -d 0 -p ack -e 40 -c 0 -i 102 -a 0 -x {1.0 0.0 -1 ------- null}
- -t 0.60008 -s 0 -d 1 -p cbr -e 500 -c 1 -i 101 -a 1 -x {0.1 1.1 100 ------- null}
h -t 0.60008 -s 0 -d 1 -p cbr -e 500 -c 1 -i 101 -a 1 -x {0.1 1.1 -1 ------- null}
+ -t 0.601 -s 0 -d 1 -p cbr -e 500 -c 1 -i 103 -a 1 -x {0.1 1.1 101 ------- null}
r -t 0.60108 -s 0 -d 1 -p cbr -e 500 -c 1 -i 1 -a 1 -x {0.1 1.1 0 ------- null}
- -t 0.60108 -s 0 -d 1 -p cbr -e 500 -c 1 -i 103 -a 1 -x {0.1 1.1 101 ------- null}
h -t 0.60108 -s 0 -d 1 -p cbr -e 500 -c 1 -i 103 -a 1 -x {0.1 1.1 -1 ------- null}
+ -t 0.602 -s 0 -d 1 -p cbr -e 500 -c 1 -i 104 -a 1 -x {0.1 1.1 102 ------- null}
r -t 0.60208 -s 0 -d 1 -p cbr -e 500 -c 1 -i 2 -a 1 -x {0.1 1.1 1 ------- null}
- -t 0.60208 -s 0 -d 1 -p cbr -e 500 -c 1 -i 104 -a 1 -x {0.1 1.1 102 ------- null}
h -t 0.60208 -s 0 -d 1 -p cbr -e 500 -c 1 -i 104 -a 1 -x {0.1 1.1 -1 ------- null}
+ -t 0.603 -s 0 -d 1 -p cbr -e 500 -c 1 -i 105 -a 1 -x {0.1 1.1 103 ------- null}
r -t 0.60308 -s 0 -d 1 -p cbr -e 500 -c 1 -i 3 -a 1 -x {0.1 1.1 2 ------- null}
- -t 0.60308 -s 0 -d 1 -p cbr -e 500 -c 1 -i 105 -a 1 -x {0.1 1.1 103 ------- null}
h -t 0.60308 -s 0 -d 1 -p cbr -e 500 -c 1 -i 105 -a 1 -x {0.1 1.1 -1 ------- null}
+ -t 0.604 -s 0 -d 1 -p cbr -e 500 -c 1 -i 106 -a 1 -x {0.1 1.1 104 ------- null}
r -t 0.60408 -s 0 -d 1 -p cbr -e 500 -c 1 -i 4 -a 1 -x {0.1 1.1 3 ------- null}
- -t 0.60408 -s 0 -d 1 -p cbr -e 500 -c 1 -i 106 -a 1 -x {0.1 1.1 104 ------- null}
h -t 0.60408 -s 0 -d 1 -p cbr -e 500 -c 1 -i 106 -a 1 -x {0.1 1.1 -1 ------- null}
+ -t 0.605 -s 0 -d 1 -p cbr -e 500 -c 1 -i 107 -a 1 -x {0.1 1.1 105 ------- null}
r -t 0.60508 -s 0 -d 1 -p cbr -e 500 -c 1 -i 5 -a 1 -x {0.1 1.1 4 ------- null}
- -t 0.60508 -s 0 -d 1 -p cbr -e 500 -c 1 -i 107 -a 1 -x {0.1 1.1 105 ------- null}
h -t 0.60508 -s 0 -d 1 -p cbr -e 500 -c 1 -i 107 -a 1 -x {0.1 1.1 -1 ------- null}
+ -t 0.606 -s 0 -d 1 -p cbr -e 500 -c 1 -i 108 -a 1 -x {0.1 1.1 106 ------- null}
r -t 0.60608 -s 0 -d 1 -p cbr -e 500 -c 1 -i 6 -a 1 -x {0.1 1.1 5 ------- null}
- -t 0.60608 -s 0 -d 1 -p cbr -e 500 -c 1 -i 108 -a 1 -x {0.1 1.1 106 ------- null}
h -t 0.60608 -s 0 -d 1 -p cbr -e 500 -c 1 -i 108 -a 1 -x {0.1 1.1 -1 ------- null}
+ -t 0.607 -s 0 -d 1 -p cbr -e 500 -c 1 -i 109 -a 1 -x {0.1 1.1 107 ------- null}
r -t 0.60708 -s 0 -d 1 -p cbr -e 500 -c 1 -i 7 -a 1 -x {0.1 1.1 6 ------- null}
- -t 0.60708 -s 0 -d 1 -p cbr -e 500 -c 1 -i 109 -a 1 -x {0.1 1.1 107 ------- null}
h -t 0.60708 -s 0 -d 1 -p cbr -e 500 -c 1 -i 109 -a 1 -x {0.1 1.1 -1 ------- null}
+ -t 0.608 -s 0 -d 1 -p cbr -e 500 -c 1 -i 110 -a 1 -x {0.1 1.1 108 ------- null}
r -t 0.60808 -s 0 -d 1 -p cbr -e 500 -c 1 -i 8 -a 1 -x {0.1 1.1 7 ------- null}
- -t 0.60808 -s 0 -d 1 -p cbr -e 500 -c 1 -i 110 -a 1 -x {0.1 1.1 108 ------- null}
h -t 0.60808 -s 0 -d 1 -p cbr -e 500 -c 1 -i 110 -a 1 -x {0.1 1.1 -1 ------- null}
+ -t 0.609 -s 0 -d 1 -p cbr -e 500 -c 1 -i 111 -a 1 -x {0.1 1.1 109 ------- null}
r -t 0.60908 -s 0 -d 1 -p cbr -e 500 -c 1 -i 9 -a 1 -x {0.1 1.1 8 ------- null}
- -t 0.60908 -s 0 -d 1 -p cbr -e 500 -c 1 -i 111 -a 1 -x {0.1 1.1 109 ------- null}
h -t 0.60908 -s 0 -d 1 -p cbr -e 500 -c 1 -i 111 -a 1 -x {0.1 1.1 -1 ------- null}
+ -t 0.61 -s 0 -d 1 -p cbr -e 500 -c 1 -i 112 -a 1 -x {0.1 1.1 110 ------- null}
r -t 0.61008 -s 0 -d 1 -p cbr -e 500 -c 1 -i 10 -a 1 -x {0.1 1.1 9 ------- null}
- -t 0.61008 -s 0 -d 1 -p cbr -e 500 -c 1 -i 112 -a 1 -x {0.1 1.1 110 ------- null}
h -t 0.61008 -s 0 -d 1 -p cbr -e 500 -c 1 -i 112 -a 1 -x {0.1 1.1 -1 ------- null}
+ -t 0.611 -s 0 -d 1 -p cbr -e 500 -c 1 -i 113 -a 1 -x {0.1 1.1 111 ------- null}
r -t 0.61108 -s 0 -d 1 -p cbr -e 500 -c 1 -i 11 -a 1 -x {0.1 1.1 10 ------- null}
- -t 0.61108 -s 0 -d 1 -p cbr -e 500 -c 1 -i 113 -a 1 -x {0.1 1.1 111 ------- null}
h -t 0.61108 -s 0 -d 1 -p cbr -e 500 -c 1 -i 113 -a 1 -x {0.1 1.1 -1 ------- null}
+ -t 0.612 -s 0 -d 1 -p cbr -e 500 -c 1 -i 114 -a 1 -x {0.1 1.1 112 ------- null}
r -t 0.61208 -s 0 -d 1 -p cbr -e 500 -c 1 -i 12 -a 1 -x {0.1 1.1 11 ------- null}
- -t 0.61208 -s 0 -d 1 -p cbr -e 500 -c 1 -i 114 -a 1 -x {0.1 1.1 112 ------- null}
h -t 0.61208 -s 0 -d 1 -p cbr -e 500 -c 1 -i 114 -a 1 -x {0.1 1.1 -1 ------- null}
+ -t 0.613 -s 0 -d 1 -p cbr -e 500 -c 1 -i 115 -a 1 -x {0.1 1.1 113 ------- null}
r -t 0.61308 -s 0 -d 1 -p cbr -e 500 -c 1 -i 13 -a 1 -x {0.1 1.1 12 ------- null}
- -t 0.61308 -s 0 -d 1 -p cbr -e 500 -c 1 -i 115 -a 1 -x {0.1 1.1 113 ------- null}
h -t 0.61308 -s 0 -d 1 -p cbr -e 500 -c 1 -i 115 -a 1 -x {0.1 1.1 -1 ------- null}
+ -t 0.614 -s 0 -d 1 -p cbr -e 500 -c 1 -i 116 -a 1 -x {0.1 1.1 114 ------- null}
r -t 0.61408 -s 0 -d 1 -p cbr -e 500 -c 1 -i 14 -a 1 -x {0.1 1.1 13 ------- null}
- -t 0.61408 -s 0 -d 1 -p cbr -e 500 -c 1 -i 116 -a 1 -x {0.1 1.1 114 ------- null}