+ 0.5 0 1 tcp 40 ------- 0 0.0 1.0 0 0
- 0.5 0 1 tcp 40 ------- 0 0.0 1.0 0 0
+ 0.5 0 1 cbr 500 ------- 1 0.1 1.1 0 1
- 0.50008 0 1 cbr 500 ------- 1 0.1 1.1 0 1
+ 0.501 0 1 cbr 500 ------- 1 0.1 1.1 1 2
- 0.50108 0 1 cbr 500 ------- 1 0.1 1.1 1 2
+ 0.502 0 1 cbr 500 ------- 1 0.1 1.1 2 3
- 0.50208 0 1 cbr 500 ------- 1 0.1 1.1 2 3
+ 0.503 0 1 cbr 500 ------- 1 0.1 1.1 3 4
- 0.50308 0 1 cbr 500 ------- 1 0.1 1.1 3 4
+ 0.504 0 1 cbr 500 ------- 1 0.1 1.1 4 5
- 0.50408 0 1 cbr 500 ------- 1 0.1 1.1 4 5
+ 0.505 0 1 cbr 500 ------- 1 0.1 1.1 5 6
- 0.50508 0 1 cbr 500 ------- 1 0.1 1.1 5 6
+ 0.506 0 1 cbr 500 ------- 1 0.1 1.1 6 7
- 0.50608 0 1 cbr 500 ------- 1 0.1 1.1 6 7
+ 0.507 0 1 cbr 500 ------- 1 0.1 1.1 7 8
- 0.50708 0 1 cbr 500 ------- 1 0.1 1.1 7 8
+ 0.508 0 1 cbr 500 ------- 1 0.1 1.1 8 9
- 0.50808 0 1 cbr 500 ------- 1 0.1 1.1 8 9
+ 0.509 0 1 cbr 500 ------- 1 0.1 1.1 9 10
- 0.50908 0 1 cbr 500 ------- 1 0.1 1.1 9 10
+ 0.51 0 1 cbr 500 ------- 1 0.1 1.1 10 11
- 0.51008 0 1 cbr 500 ------- 1 0.1 1.1 10 11
+ 0.511 0 1 cbr 500 ------- 1 0.1 1.1 11 12
- 0.51108 0 1 cbr 500 ------- 1 0.1 1.1 11 12
+ 0.512 0 1 cbr 500 ------- 1 0.1 1.1 12 13
- 0.51208 0 1 cbr 500 ------- 1 0.1 1.1 12 13
+ 0.513 0 1 cbr 500 ------- 1 0.1 1.1 13 14
- 0.51308 0 1 cbr 500 ------- 1 0.1 1.1 13 14
+ 0.514 0 1 cbr 500 ------- 1 0.1 1.1 14 15
- 0.51408 0 1 cbr 500 ------- 1 0.1 1.1 14 15
+ 0.515 0 1 cbr 500 ------- 1 0.1 1.1 15 16
- 0.51508 0 1 cbr 500 ------- 1 0.1 1.1 15 16
+ 0.516 0 1 cbr 500 ------- 1 0.1 1.1 16 17
- 0.51608 0 1 cbr 500 ------- 1 0.1 1.1 16 17
+ 0.517 0 1 cbr 500 ------- 1 0.1 1.1 17 18
- 0.51708 0 1 cbr 500 ------- 1 0.1 1.1 17 18
+ 0.518 0 1 cbr 500 ------- 1 0.1 1.1 18 19
- 0.51808 0 1 cbr 500 ------- 1 0.1 1.1 18 19
+ 0.519 0 1 cbr 500 ------- 1 0.1 1.1 19 20
- 0.51908 0 1 cbr 500 ------- 1 0.1 1.1 19 20
+ 0.52 0 1 cbr 500 ------- 1 0.1 1.1 20 21
- 0.52008 0 1 cbr 500 ------- 1 0.1 1.1 20 21
+ 0.521 0 1 cbr 500 ------- 1 0.1 1.1 21 22
- 0.52108 0 1 cbr 500 ------- 1 0.1 1.1 21 22
+ 0.522 0 1 cbr 500 ------- 1 0.1 1.1 22 23
- 0.52208 0 1 cbr 500 ------- 1 0.1 1.1 22 23
+ 0.523 0 1 cbr 500 ------- 1 0.1 1.1 23 24
- 0.52308 0 1 cbr 500 ------- 1 0.1 1.1 23 24
+ 0.524 0 1 cbr 500 ------- 1 0.1 1.1 24 25
- 0.52408 0 1 cbr 500 ------- 1 0.1 1.1 24 25
+ 0.525 0 1 cbr 500 ------- 1 0.1 1.1 25 26
- 0.52508 0 1 cbr 500 ------- 1 0.1 1.1 25 26
+ 0.526 0 1 cbr 500 ------- 1 0.1 1.1 26 27
- 0.52608 0 1 cbr 500 ------- 1 0.1 1.1 26 27
+ 0.527 0 1 cbr 500 ------- 1 0.1 1.1 27 28
- 0.52708 0 1 cbr 500 ------- 1 0.1 1.1 27 28
+ 0.528 0 1 cbr 500 ------- 1 0.1 1.1 28 29
- 0.52808 0 1 cbr 500 ------- 1 0.1 1.1 28 29
+ 0.529 0 1 cbr 500 ------- 1 0.1 1.1 29 30
- 0.52908 0 1 cbr 500 ------- 1 0.1 1.1 29 30
+ 0.53 0 1 cbr 500 ------- 1 0.1 1.1 30 31
- 0.53008 0 1 cbr 500 ------- 1 0.1 1.1 30 31
+ 0.531 0 1 cbr 500 ------- 1 0.1 1.1 31 32
- 0.53108 0 1 cbr 500 ------- 1 0.1 1.1 31 32
+ 0.532 0 1 cbr 500 ------- 1 0.1 1.1 32 33
- 0.53208 0 1 cbr 500 ------- 1 0.1 1.1 32 33
+ 0.533 0 1 cbr 500 ------- 1 0.1 1.1 33 34
- 0.53308 0 1 cbr 500 ------- 1 0.1 1.1 33 34
+ 0.534 0 1 cbr 500 ------- 1 0.1 1.1 34 35
- 0.53408 0 1 cbr 500 ------- 1 0.1 1.1 34 35
+ 0.535 0 1 cbr 500 ------- 1 0.1 1.1 35 36
- 0.53508 0 1 cbr 500 ------- 1 0.1 1.1 35 36
+ 0.536 0 1 cbr 500 ------- 1 0.1 1.1 36 37
- 0.53608 0 1 cbr 500 ------- 1 0.1 1.1 36 37
+ 0.537 0 1 cbr 500 ------- 1 0.1 1.1 37 38
- 0.53708 0 1 cbr 500 ------- 1 0.1 1.1 37 38
+ 0.538 0 1 cbr 500 ------- 1 0.1 1.1 38 39
- 0.53808 0 1 cbr 500 ------- 1 0.1 1.1 38 39
+ 0.539 0 1 cbr 500 ------- 1 0.1 1.1 39 40
- 0.53908 0 1 cbr 500 ------- 1 0.1 1.1 39 40
+ 0.54 0 1 cbr 500 ------- 1 0.1 1.1 40 41
- 0.54008 0 1 cbr 500 ------- 1 0.1 1.1 40 41
+ 0.541 0 1 cbr 500 ------- 1 0.1 1.1 41 42
- 0.54108 0 1 cbr 500 ------- 1 0.1 1.1 41 42
+ 0.542 0 1 cbr 500 ------- 1 0.1 1.1 42 43
- 0.54208 0 1 cbr 500 ------- 1 0.1 1.1 42 43
+ 0.543 0 1 cbr 500 ------- 1 0.1 1.1 43 44
- 0.54308 0 1 cbr 500 ------- 1 0.1 1.1 43 44
+ 0.544 0 1 cbr 500 ------- 1 0.1 1.1 44 45
- 0.54408 0 1 cbr 500 ------- 1 0.1 1.1 44 45
+ 0.545 0 1 cbr 500 ------- 1 0.1 1.1 45 46
- 0.54508 0 1 cbr 500 ------- 1 0.1 1.1 45 46
+ 0.546 0 1 cbr 500 ------- 1 0.1 1.1 46 47
- 0.54608 0 1 cbr 500 ------- 1 0.1 1.1 46 47
+ 0.547 0 1 cbr 500 ------- 1 0.1 1.1 47 48
- 0.54708 0 1 cbr 500 ------- 1 0.1 1.1 47 48
+ 0.548 0 1 cbr 500 ------- 1 0.1 1.1 48 49
- 0.54808 0 1 cbr 500 ------- 1 0.1 1.1 48 49
+ 0.549 0 1 cbr 500 ------- 1 0.1 1.1 49 50
- 0.54908 0 1 cbr 500 ------- 1 0.1 1.1 49 50
+ 0.55 0 1 cbr 500 ------- 1 0.1 1.1 50 51
- 0.55008 0 1 cbr 500 ------- 1 0.1 1.1 50 51
+ 0.551 0 1 cbr 500 ------- 1 0.1 1.1 51 52
- 0.55108 0 1 cbr 500 ------- 1 0.1 1.1 51 52
+ 0.552 0 1 cbr 500 ------- 1 0.1 1.1 52 53
- 0.55208 0 1 cbr 500 ------- 1 0.1 1.1 52 53
+ 0.553 0 1 cbr 500 ------- 1 0.1 1.1 53 54
- 0.55308 0 1 cbr 500 ------- 1 0.1 1.1 53 54
+ 0.554 0 1 cbr 500 ------- 1 0.1 1.1 54 55
- 0.55408 0 1 cbr 500 ------- 1 0.1 1.1 54 55
+ 0.555 0 1 cbr 500 ------- 1 0.1 1.1 55 56
- 0.55508 0 1 cbr 500 ------- 1 0.1 1.1 55 56
+ 0.556 0 1 cbr 500 ------- 1 0.1 1.1 56 57
- 0.55608 0 1 cbr 500 ------- 1 0.1 1.1 56 57
+ 0.557 0 1 cbr 500 ------- 1 0.1 1.1 57 58
- 0.55708 0 1 cbr 500 ------- 1 0.1 1.1 57 58
+ 0.558 0 1 cbr 500 ------- 1 0.1 1.1 58 59
- 0.55808 0 1 cbr 500 ------- 1 0.1 1.1 58 59
+ 0.559 0 1 cbr 500 ------- 1 0.1 1.1 59 60
- 0.55908 0 1 cbr 500 ------- 1 0.1 1.1 59 60
+ 0.56 0 1 cbr 500 ------- 1 0.1 1.1 60 61
- 0.56008 0 1 cbr 500 ------- 1 0.1 1.1 60 61
+ 0.561 0 1 cbr 500 ------- 1 0.1 1.1 61 62
- 0.56108 0 1 cbr 500 ------- 1 0.1 1.1 61 62
+ 0.562 0 1 cbr 500 ------- 1 0.1 1.1 62 63
- 0.56208 0 1 cbr 500 ------- 1 0.1 1.1 62 63
+ 0.563 0 1 cbr 500 ------- 1 0.1 1.1 63 64
- 0.56308 0 1 cbr 500 ------- 1 0.1 1.1 63 64
+ 0.564 0 1 cbr 500 ------- 1 0.1 1.1 64 65
- 0.56408 0 1 cbr 500 ------- 1 0.1 1.1 64 65
+ 0.565 0 1 cbr 500 ------- 1 0.1 1.1 65 66
- 0.56508 0 1 cbr 500 ------- 1 0.1 1.1 65 66
+ 0.566 0 1 cbr 500 ------- 1 0.1 1.1 66 67
- 0.56608 0 1 cbr 500 ------- 1 0.1 1.1 66 67
+ 0.567 0 1 cbr 500 ------- 1 0.1 1.1 67 68
- 0.56708 0 1 cbr 500 ------- 1 0.1 1.1 67 68
+ 0.568 0 1 cbr 500 ------- 1 0.1 1.1 68 69
- 0.56808 0 1 cbr 500 ------- 1 0.1 1.1 68 69
+ 0.569 0 1 cbr 500 ------- 1 0.1 1.1 69 70
- 0.56908 0 1 cbr 500 ------- 1 0.1 1.1 69 70
+ 0.57 0 1 cbr 500 ------- 1 0.1 1.1 70 71
- 0.57008 0 1 cbr 500 ------- 1 0.1 1.1 70 71
+ 0.571 0 1 cbr 500 ------- 1 0.1 1.1 71 72
- 0.57108 0 1 cbr 500 ------- 1 0.1 1.1 71 72
+ 0.572 0 1 cbr 500 ------- 1 0.1 1.1 72 73
- 0.57208 0 1 cbr 500 ------- 1 0.1 1.1 72 73
+ 0.573 0 1 cbr 500 ------- 1 0.1 1.1 73 74
- 0.57308 0 1 cbr 500 ------- 1 0.1 1.1 73 74
+ 0.574 0 1 cbr 500 ------- 1 0.1 1.1 74 75
- 0.57408 0 1 cbr 500 ------- 1 0.1 1.1 74 75
+ 0.575 0 1 cbr 500 ------- 1 0.1 1.1 75 76
- 0.57508 0 1 cbr 500 ------- 1 0.1 1.1 75 76
+ 0.576 0 1 cbr 500 ------- 1 0.1 1.1 76 77
- 0.57608 0 1 cbr 500 ------- 1 0.1 1.1 76 77
+ 0.577 0 1 cbr 500 ------- 1 0.1 1.1 77 78
- 0.57708 0 1 cbr 500 ------- 1 0.1 1.1 77 78
+ 0.578 0 1 cbr 500 ------- 1 0.1 1.1 78 79
- 0.57808 0 1 cbr 500 ------- 1 0.1 1.1 78 79
+ 0.579 0 1 cbr 500 ------- 1 0.1 1.1 79 80
- 0.57908 0 1 cbr 500 ------- 1 0.1 1.1 79 80
+ 0.58 0 1 cbr 500 ------- 1 0.1 1.1 80 81
- 0.58008 0 1 cbr 500 ------- 1 0.1 1.1 80 81
+ 0.581 0 1 cbr 500 ------- 1 0.1 1.1 81 82
- 0.58108 0 1 cbr 500 ------- 1 0.1 1.1 81 82
+ 0.582 0 1 cbr 500 ------- 1 0.1 1.1 82 83
- 0.58208 0 1 cbr 500 ------- 1 0.1 1.1 82 83
+ 0.583 0 1 cbr 500 ------- 1 0.1 1.1 83 84
- 0.58308 0 1 cbr 500 ------- 1 0.1 1.1 83 84
+ 0.584 0 1 cbr 500 ------- 1 0.1 1.1 84 85
- 0.58408 0 1 cbr 500 ------- 1 0.1 1.1 84 85
+ 0.585 0 1 cbr 500 ------- 1 0.1 1.1 85 86
- 0.58508 0 1 cbr 500 ------- 1 0.1 1.1 85 86
+ 0.586 0 1 cbr 500 ------- 1 0.1 1.1 86 87
- 0.58608 0 1 cbr 500 ------- 1 0.1 1.1 86 87
+ 0.587 0 1 cbr 500 ------- 1 0.1 1.1 87 88
- 0.58708 0 1 cbr 500 ------- 1 0.1 1.1 87 88
+ 0.588 0 1 cbr 500 ------- 1 0.1 1.1 88 89
- 0.58808 0 1 cbr 500 ------- 1 0.1 1.1 88 89
+ 0.589 0 1 cbr 500 ------- 1 0.1 1.1 89 90
- 0.58908 0 1 cbr 500 ------- 1 0.1 1.1 89 90
+ 0.59 0 1 cbr 500 ------- 1 0.1 1.1 90 91
- 0.59008 0 1 cbr 500 ------- 1 0.1 1.1 90 91
+ 0.591 0 1 cbr 500 ------- 1 0.1 1.1 91 92
- 0.59108 0 1 cbr 500 ------- 1 0.1 1.1 91 92
+ 0.592 0 1 cbr 500 ------- 1 0.1 1.1 92 93
- 0.59208 0 1 cbr 500 ------- 1 0.1 1.1 92 93
+ 0.593 0 1 cbr 500 ------- 1 0.1 1.1 93 94
- 0.59308 0 1 cbr 500 ------- 1 0.1 1.1 93 94
+ 0.594 0 1 cbr 500 ------- 1 0.1 1.1 94 95
- 0.59408 0 1 cbr 500 ------- 1 0.1 1.1 94 95
+ 0.595 0 1 cbr 500 ------- 1 0.1 1.1 95 96
- 0.59508 0 1 cbr 500 ------- 1 0.1 1.1 95 96
+ 0.596 0 1 cbr 500 ------- 1 0.1 1.1 96 97
- 0.59608 0 1 cbr 500 ------- 1 0.1 1.1 96 97
+ 0.597 0 1 cbr 500 ------- 1 0.1 1.1 97 98
- 0.59708 0 1 cbr 500 ------- 1 0.1 1.1 97 98
+ 0.598 0 1 cbr 500 ------- 1 0.1 1.1 98 99
- 0.59808 0 1 cbr 500 ------- 1 0.1 1.1 98 99
+ 0.599 0 1 cbr 500 ------- 1 0.1 1.1 99 100
- 0.59908 0 1 cbr 500 ------- 1 0.1 1.1 99 100
+ 0.6 0 1 cbr 500 ------- 1 0.1 1.1 100 101
r 0.60008 0 1 tcp 40 ------- 0 0.0 1.0 0 0
+ 0.60008 1 0 ack 40 ------- 0 1.0 0.0 0 102
- 0.60008 1 0 ack 40 ------- 0 1.0 0.0 0 102
- 0.60008 0 1 cbr 500 ------- 1 0.1 1.1 100 101
+ 0.601 0 1 cbr 500 ------- 1 0.1 1.1 101 103
r 0.60108 0 1 cbr 500 ------- 1 0.1 1.1 0 1
- 0.60108 0 1 cbr 500 ------- 1 0.1 1.1 101 103
+ 0.602 0 1 cbr 500 ------- 1 0.1 1.1 102 104
r 0.60208 0 1 cbr 500 ------- 1 0.1 1.1 1 2
- 0.60208 0 1 cbr 500 ------- 1 0.1 1.1 102 104
+ 0.603 0 1 cbr 500 ------- 1 0.1 1.1 103 105
r 0.60308 0 1 cbr 500 ------- 1 0.1 1.1 2 3
- 0.60308 0 1 cbr 500 ------- 1 0.1 1.1 103 105
+ 0.604 0 1 cbr 500 ------- 1 0.1 1.1 104 106
r 0.60408 0 1 cbr 500 ------- 1 0.1 1.1 3 4
- 0.60408 0 1 cbr 500 ------- 1 0.1 1.1 104 106
+ 0.605 0 1 cbr 500 ------- 1 0.1 1.1 105 107
r 0.60508 0 1 cbr 500 ------- 1 0.1 1.1 4 5
- 0.60508 0 1 cbr 500 ------- 1 0.1 1.1 105 107
+ 0.606 0 1 cbr 500 ------- 1 0.1 1.1 106 108
r 0.60608 0 1 cbr 500 ------- 1 0.1 1.1 5 6
- 0.60608 0 1 cbr 500 ------- 1 0.1 1.1 106 108
+ 0.607 0 1 cbr 500 ------- 1 0.1 1.1 107 109
r 0.60708 0 1 cbr 500 ------- 1 0.1 1.1 6 7
- 0.60708 0 1 cbr 500 ------- 1 0.1 1.1 107 109
+ 0.608 0 1 cbr 500 ------- 1 0.1 1.1 108 110
r 0.60808 0 1 cbr 500 ------- 1 0.1 1.1 7 8
- 0.60808 0 1 cbr 500 ------- 1 0.1 1.1 108 110
+ 0.609 0 1 cbr 500 ------- 1 0.1 1.1 109 111
r 0.60908 0 1 cbr 500 ------- 1 0.1 1.1 8 9
- 0.60908 0 1 cbr 500 ------- 1 0.1 1.1 109 111
+ 0.61 0 1 cbr 500 ------- 1 0.1 1.1 110 112
r 0.61008 0 1 cbr 500 ------- 1 0.1 1.1 9 10
- 0.61008 0 1 cbr 500 ------- 1 0.1 1.1 110 112
+ 0.611 0 1 cbr 500 ------- 1 0.1 1.1 111 113
r 0.61108 0 1 cbr 500 ------- 1 0.1 1.1 10 11
- 0.61108 0 1 cbr 500 ------- 1 0.1 1.1 111 113
+ 0.612 0 1 cbr 500 ------- 1 0.1 1.1 112 114
r 0.61208 0 1 cbr 500 ------- 1 0.1 1.1 11 12
- 0.61208 0 1 cbr 500 ------- 1 0.1 1.1 112 114
+ 0.613 0 1 cbr 500 ------- 1 0.1 1.1 113 115
r 0.61308 0 1 cbr 500 ------- 1 0.1 1.1 12 13
- 0.61308 0 1 cbr 500 ------- 1 0.1 1.1 113 115
+ 0.614 0 1 cbr 500 ------- 1 0.1 1.1 114 116
r 0.61408 0 1 cbr 500 ------- 1 0.1 1.1 13 14
- 0.61408 0 1 cbr 500 ------- 1 0.1 1.1 114 116
+ 0.615 0 1 cbr 500 ------- 1 0.1 1.1 115 117
r 0.61508 0 1 cbr 500 ------- 1 0.1 1.1 14 15
- 0.61508 0 1 cbr 500 ------- 1 0.1 1.1 115 117
+ 0.616 0 1 cbr 500 ------- 1 0.1 1.1 116 118
r 0.61608 0 1 cbr 500 ------- 1 0.1 1.1 15 16
- 0.61608 0 1 cbr 500 ------- 1 0.1 1.1 116 118
+ 0.617 0 1 cbr 500 ------- 1 0.1 1.1 117 119
r 0.61708 0 1 cbr 500 ------- 1 0.1 1.1 16 17
- 0.61708 0 1 cbr 500 ------- 1 0.1 1.1 117 119
+ 0.618 0 1 cbr 500 ------- 1 0.1 1.1 118 120
r 0.61808 0 1 cbr 500 ------- 1 0.1 1.1 17 18
- 0.61808 0 1 cbr 500 ------- 1 0.1 1.1 118 120
+ 0.619 0 1 cbr 500 ------- 1 0.1 1.1 119 121
r 0.61908 0 1 cbr 500 ------- 1 0.1 1.1 18 19
- 0.61908 0 1 cbr 500 ------- 1 0.1 1.1 119 121
+ 0.62 0 1 cbr 500 ------- 1 0.1 1.1 120 122
r 0.62008 0 1 cbr 500 ------- 1 0.1 1.1 19 20
- 0.62008 0 1 cbr 500 ------- 1 0.1 1.1 120 122
+ 0.621 0 1 cbr 500 ------- 1 0.1 1.1 121 123
r 0.62108 0 1 cbr 500 ------- 1 0.1 1.1 20 21
- 0.62108 0 1 cbr 500 ------- 1 0.1 1.1 121 123
+ 0.622 0 1 cbr 500 ------- 1 0.1 1.1 122 124
r 0.62208 0 1 cbr 500 ------- 1 0.1 1.1 21 22
- 0.62208 0 1 cbr 500 ------- 1 0.1 1.1 122 124
+ 0.623 0 1 cbr 500 ------- 1 0.1 1.1 123 125
r 0.62308 0 1 cbr 500 ------- 1 0.1 1.1 22 23
- 0.62308 0 1 cbr 500 ------- 1 0.1 1.1 123 125
+ 0.624 0 1 cbr 500 ------- 1 0.1 1.1 124 126
r 0.62408 0 1 cbr 500 ------- 1 0.1 1.1 23 24
- 0.62408 0 1 cbr 500 ------- 1 0.1 1.1 124 126
+ 0.625 0 1 cbr 500 ------- 1 0.1 1.1 125 127
r 0.62508 0 1 cbr 500 ------- 1 0.1 1.1 24 25
- 0.62508 0 1 cbr 500 ------- 1 0.1 1.1 125 127
+ 0.626 0 1 cbr 500 ------- 1 0.1 1.1 126 128
r 0.62608 0 1 cbr 500 ------- 1 0.1 1.1 25 26
- 0.62608 0 1 cbr 500 ------- 1 0.1 1.1 126 128
+ 0.627 0 1 cbr 500 ------- 1 0.1 1.1 127 129
r 0.62708 0 1 cbr 500 ------- 1 0.1 1.1 26 27
- 0.62708 0 1 cbr 500 ------- 1 0.1 1.1 127 129
+ 0.628 0 1 cbr 500 ------- 1 0.1 1.1 128 130
r 0.62808 0 1 cbr 500 ------- 1 0.1 1.1 27 28
- 0.62808 0 1 cbr 500 ------- 1 0.1 1.1 128 130
+ 0.629 0 1 cbr 500 ------- 1 0.1 1.1 129 131
r 0.62908 0 1 cbr 500 ------- 1 0.1 1.1 28 29
- 0.62908 0 1 cbr 500 ------- 1 0.1 1.1 129 131
+ 0.63 0 1 cbr 500 ------- 1 0.1 1.1 130 132
r 0.63008 0 1 cbr 500 ------- 1 0.1 1.1 29 30
- 0.63008 0 1 cbr 500 ------- 1 0.1 1.1 130 132
+ 0.631 0 1 cbr 500 ------- 1 0.1 1.1 131 133
r 0.63108 0 1 cbr 500 ------- 1 0.1 1.1 30 31
- 0.63108 0 1 cbr 500 ------- 1 0.1 1.1 131 133
+ 0.632 0 1 cbr 500 ------- 1 0.1 1.1 132 134
r 0.63208 0 1 cbr 500 ------- 1 0.1 1.1 31 32
- 0.63208 0 1 cbr 500 ------- 1 0.1 1.1 132 134
+ 0.633 0 1 cbr 500 ------- 1 0.1 1.1 133 135
r 0.63308 0 1 cbr 500 ------- 1 0.1 1.1 32 33
- 0.63308 0 1 cbr 500 ------- 1 0.1 1.1 133 135
+ 0.634 0 1 cbr 500 ------- 1 0.1 1.1 134 136
r 0.63408 0 1 cbr 500 ------- 1 0.1 1.1 33 34
- 0.63408 0 1 cbr 500 ------- 1 0.1 1.1 134 136
+ 0.635 0 1 cbr 500 ------- 1 0.1 1.1 135 137
r 0.63508 0 1 cbr 500 ------- 1 0.1 1.1 34 35
- 0.63508 0 1 cbr 500 ------- 1 0.1 1.1 135 137
+ 0.636 0 1 cbr 500 ------- 1 0.1 1.1 136 138
r 0.63608 0 1 cbr 500 ------- 1 0.1 1.1 35 36
- 0.63608 0 1 cbr 500 ------- 1 0.1 1.1 136 138
+ 0.637 0 1 cbr 500 ------- 1 0.1 1.1 137 139
r 0.63708 0 1 cbr 500 ------- 1 0.1 1.1 36 37
- 0.63708 0 1 cbr 500 ------- 1 0.1 1.1 137 139
+ 0.638 0 1 cbr 500 ------- 1 0.1 1.1 138 140
r 0.63808 0 1 cbr 500 ------- 1 0.1 1.1 37 38
- 0.63808 0 1 cbr 500 ------- 1 0.1 1.1 138 140
+ 0.639 0 1 cbr 500 ------- 1 0.1 1.1 139 141
r 0.63908 0 1 cbr 500 ------- 1 0.1 1.1 38 39
- 0.63908 0 1 cbr 500 ------- 1 0.1 1.1 139 141
+ 0.64 0 1 cbr 500 ------- 1 0.1 1.1 140 142
r 0.64008 0 1 cbr 500 ------- 1 0.1 1.1 39 40
- 0.64008 0 1 cbr 500 ------- 1 0.1 1.1 140 142
+ 0.641 0 1 cbr 500 ------- 1 0.1 1.1 141 143
r 0.64108 0 1 cbr 500 ------- 1 0.1 1.1 40 41
- 0.64108 0 1 cbr 500 ------- 1 0.1 1.1 141 143
+ 0.642 0 1 cbr 500 ------- 1 0.1 1.1 142 144
r 0.64208 0 1 cbr 500 ------- 1 0.1 1.1 41 42
- 0.64208 0 1 cbr 500 ------- 1 0.1 1.1 142 144
+ 0.643 0 1 cbr 500 ------- 1 0.1 1.1 143 145
r 0.64308 0 1 cbr 500 ------- 1 0.1 1.1 42 43
- 0.64308 0 1 cbr 500 ------- 1 0.1 1.1 143 145
+ 0.644 0 1 cbr 500 ------- 1 0.1 1.1 144 146
r 0.64408 0 1 cbr 500 ------- 1 0.1 1.1 43 44
- 0.64408 0 1 cbr 500 ------- 1 0.1 1.1 144 146
+ 0.645 0 1 cbr 500 ------- 1 0.1 1.1 145 147
r 0.64508 0 1 cbr 500 ------- 1 0.1 1.1 44 45
- 0.64508 0 1 cbr 500 ------- 1 0.1 1.1 145 147
+ 0.646 0 1 cbr 500 ------- 1 0.1 1.1 146 148
r 0.64608 0 1 cbr 500 ------- 1 0.1 1.1 45 46
- 0.64608 0 1 cbr 500 ------- 1 0.1 1.1 146 148
+ 0.647 0 1 cbr 500 ------- 1 0.1 1.1 147 149
r 0.64708 0 1 cbr 500 ------- 1 0.1 1.1 46 47
- 0.64708 0 1 cbr 500 ------- 1 0.1 1.1 147 149
+ 0.648 0 1 cbr 500 ------- 1 0.1 1.1 148 150
r 0.64808 0 1 cbr 500 ------- 1 0.1 1.1 47 48
- 0.64808 0 1 cbr 500 ------- 1 0.1 1.1 148 150
+ 0.649 0 1 cbr 500 ------- 1 0.1 1.1 149 151
r 0.64908 0 1 cbr 500 ------- 1 0.1 1.1 48 49
- 0.64908 0 1 cbr 500 ------- 1 0.1 1.1 149 151
+ 0.65 0 1 cbr 500 ------- 1 0.1 1.1 150 152
r 0.65008 0 1 cbr 500 ------- 1 0.1 1.1 49 50
- 0.65008 0 1 cbr 500 ------- 1 0.1 1.1 150 152
+ 0.651 0 1 cbr 500 ------- 1 0.1 1.1 151 153
r 0.65108 0 1 cbr 500 ------- 1 0.1 1.1 50 51
- 0.65108 0 1 cbr 500 ------- 1 0.1 1.1 151 153
+ 0.652 0 1 cbr 500 ------- 1 0.1 1.1 152 154
r 0.65208 0 1 cbr 500 ------- 1 0.1 1.1 51 52
- 0.65208 0 1 cbr 500 ------- 1 0.1 1.1 152 154
+ 0.653 0 1 cbr 500 ------- 1 0.1 1.1 153 155
r 0.65308 0 1 cbr 500 ------- 1 0.1 1.1 52 53
- 0.65308 0 1 cbr 500 ------- 1 0.1 1.1 153 155
+ 0.654 0 1 cbr 500 ------- 1 0.1 1.1 154 156
r 0.65408 0 1 cbr 500 ------- 1 0.1 1.1 53 54
- 0.65408 0 1 cbr 500 ------- 1 0.1 1.1 154 156
+ 0.655 0 1 cbr 500 ------- 1 0.1 1.1 155 157
r 0.65508 0 1 cbr 500 ------- 1 0.1 1.1 54 55
- 0.65508 0 1 cbr 500 ------- 1 0.1 1.1 155 157
+ 0.656 0 1 cbr 500 ------- 1 0.1 1.1 156 158
r 0.65608 0 1 cbr 500 ------- 1 0.1 1.1 55 56
- 0.65608 0 1 cbr 500 ------- 1 0.1 1.1 156 158
+ 0.657 0 1 cbr 500 ------- 1 0.1 1.1 157 159
r 0.65708 0 1 cbr 500 ------- 1 0.1 1.1 56 57
- 0.65708 0 1 cbr 500 ------- 1 0.1 1.1 157 159
+ 0.658 0 1 cbr 500 ------- 1 0.1 1.1 158 160
r 0.65808 0 1 cbr 500 ------- 1 0.1 1.1 57 58
- 0.65808 0 1 cbr 500 ------- 1 0.1 1.1 158 160
+ 0.659 0 1 cbr 500 ------- 1 0.1 1.1 159 161
r 0.65908 0 1 cbr 500 ------- 1 0.1 1.1 58 59
- 0.65908 0 1 cbr 500 ------- 1 0.1 1.1 159 161
+ 0.66 0 1 cbr 500 ------- 1 0.1 1.1 160 162
r 0.66008 0 1 cbr 500 ------- 1 0.1 1.1 59 60
- 0.66008 0 1 cbr 500 ------- 1 0.1 1.1 160 162
+ 0.661 0 1 cbr 500 ------- 1 0.1 1.1 161 163
r 0.66108 0 1 cbr 500 ------- 1 0.1 1.1 60 61
- 0.66108 0 1 cbr 500 ------- 1 0.1 1.1 161 163
+ 0.662 0 1 cbr 500 ------- 1 0.1 1.1 162 164
r 0.66208 0 1 cbr 500 ------- 1 0.1 1.1 61 62
- 0.66208 0 1 cbr 500 ------- 1 0.1 1.1 162 164
+ 0.663 0 1 cbr 500 ------- 1 0.1 1.1 163 165
r 0.66308 0 1 cbr 500 ------- 1 0.1 1.1 62 63
- 0.66308 0 1 cbr 500 ------- 1 0.1 1.1 163 165
+ 0.664 0 1 cbr 500 ------- 1 0.1 1.1 164 166
r 0.66408 0 1 cbr 500 ------- 1 0.1 1.1 63 64
- 0.66408 0 1 cbr 500 ------- 1 0.1 1.1 164 166
+ 0.665 0 1 cbr 500 ------- 1 0.1 1.1 165 167
r 0.66508 0 1 cbr 500 ------- 1 0.1 1.1 64 65
- 0.66508 0 1 cbr 500 ------- 1 0.1 1.1 165 167
+ 0.666 0 1 cbr 500 ------- 1 0.1 1.1 166 168
r 0.66608 0 1 cbr 500 ------- 1 0.1 1.1 65 66
- 0.66608 0 1 cbr 500 ------- 1 0.1 1.1 166 168
+ 0.667 0 1 cbr 500 ------- 1 0.1 1.1 167 169
r 0.66708 0 1 cbr 500 ------- 1 0.1 1.1 66 67
- 0.66708 0 1 cbr 500 ------- 1 0.1 1.1 167 169
+ 0.668 0 1 cbr 500 ------- 1 0.1 1.1 168 170
r 0.66808 0 1 cbr 500 ------- 1 0.1 1.1 67 68
- 0.66808 0 1 cbr 500 ------- 1 0.1 1.1 168 170
+ 0.669 0 1 cbr 500 ------- 1 0.1 1.1 169 171
r 0.66908 0 1 cbr 500 ------- 1 0.1 1.1 68 69
- 0.66908 0 1 cbr 500 ------- 1 0.1 1.1 169 171
+ 0.67 0 1 cbr 500 ------- 1 0.1 1.1 170 172
r 0.67008 0 1 cbr 500 ------- 1 0.1 1.1 69 70
- 0.67008 0 1 cbr 500 ------- 1 0.1 1.1 170 172
+ 0.671 0 1 cbr 500 ------- 1 0.1 1.1 171 173
r 0.67108 0 1 cbr 500 ------- 1 0.1 1.1 70 71
- 0.67108 0 1 cbr 500 ------- 1 0.1 1.1 171 173
+ 0.672 0 1 cbr 500 ------- 1 0.1 1.1 172 174
r 0.67208 0 1 cbr 500 ------- 1 0.1 1.1 71 72
- 0.67208 0 1 cbr 500 ------- 1 0.1 1.1 172 174
+ 0.673 0 1 cbr 500 ------- 1 0.1 1.1 173 175
r 0.67308 0 1 cbr 500 ------- 1 0.1 1.1 72 73
- 0.67308 0 1 cbr 500 ------- 1 0.1 1.1 173 175
+ 0.674 0 1 cbr 500 ------- 1 0.1 1.1 174 176
r 0.67408 0 1 cbr 500 ------- 1 0.1 1.1 73 74
- 0.67408 0 1 cbr 500 ------- 1 0.1 1.1 174 176
+ 0.675 0 1 cbr 500 ------- 1 0.1 1.1 175 177
r 0.67508 0 1 cbr 500 ------- 1 0.1 1.1 74 75
- 0.67508 0 1 cbr 500 ------- 1 0.1 1.1 175 177
+ 0.676 0 1 cbr 500 ------- 1 0.1 1.1 176 178
r 0.67608 0 1 cbr 500 ------- 1 0.1 1.1 75 76
- 0.67608 0 1 cbr 500 ------- 1 0.1 1.1 176 178
+ 0.677 0 1 cbr 500 ------- 1 0.1 1.1 177 179
r 0.67708 0 1 cbr 500 ------- 1 0.1 1.1 76 77
- 0.67708 0 1 cbr 500 ------- 1 0.1 1.1 177 179
+ 0.678 0 1 cbr 500 ------- 1 0.1 1.1 178 180
r 0.67808 0 1 cbr 500 ------- 1 0.1 1.1 77 78
- 0.67808 0 1 cbr 500 ------- 1 0.1 1.1 178 180
+ 0.679 0 1 cbr 500 ------- 1 0.1 1.1 179 181
r 0.67908 0 1 cbr 500 ------- 1 0.1 1.1 78 79
- 0.67908 0 1 cbr 500 ------- 1 0.1 1.1 179 181
+ 0.68 0 1 cbr 500 ------- 1 0.1 1.1 180 182
r 0.68008 0 1 cbr 500 ------- 1 0.1 1.1 79 80
- 0.68008 0 1 cbr 500 ------- 1 0.1 1.1 180 182
+ 0.681 0 1 cbr 500 ------- 1 0.1 1.1 181 183
r 0.68108 0 1 cbr 500 ------- 1 0.1 1.1 80 81
- 0.68108 0 1 cbr 500 ------- 1 0.1 1.1 181 183
+ 0.682 0 1 cbr 500 ------- 1 0.1 1.1 182 184
r 0.68208 0 1 cbr 500 ------- 1 0.1 1.1 81 82
- 0.68208 0 1 cbr 500 ------- 1 0.1 1.1 182 184
+ 0.683 0 1 cbr 500 ------- 1 0.1 1.1 183 185
r 0.68308 0 1 cbr 500 ------- 1 0.1 1.1 82 83
- 0.68308 0 1 cbr 500 ------- 1 0.1 1.1 183 185
+ 0.684 0 1 cbr 500 ------- 1 0.1 1.1 184 186
r 0.68408 0 1 cbr 500 ------- 1 0.1 1.1 83 84
- 0.68408 0 1 cbr 500 ------- 1 0.1 1.1 184 186
+ 0.685 0 1 cbr 500 ------- 1 0.1 1.1 185 187
r 0.68508 0 1 cbr 500 ------- 1 0.1 1.1 84 85
- 0.68508 0 1 cbr 500 ------- 1 0.1 1.1 185 187
+ 0.686 0 1 cbr 500 ------- 1 0.1 1.1 186 188
r 0.68608 0 1 cbr 500 ------- 1 0.1 1.1 85 86
- 0.68608 0 1 cbr 500 ------- 1 0.1 1.1 186 188
+ 0.687 0 1 cbr 500 ------- 1 0.1 1.1 187 189
r 0.68708 0 1 cbr 500 ------- 1 0.1 1.1 86 87
- 0.68708 0 1 cbr 500 ------- 1 0.1 1.1 187 189
+ 0.688 0 1 cbr 500 ------- 1 0.1 1.1 188 190
r 0.68808 0 1 cbr 500 ------- 1 0.1 1.1 87 88
- 0.68808 0 1 cbr 500 ------- 1 0.1 1.1 188 190
+ 0.689 0 1 cbr 500 ------- 1 0.1 1.1 189 191
r 0.68908 0 1 cbr 500 ------- 1 0.1 1.1 88 89
- 0.68908 0 1 cbr 500 ------- 1 0.1 1.1 189 191
+ 0.69 0 1 cbr 500 ------- 1 0.1 1.1 190 192
r 0.69008 0 1 cbr 500 ------- 1 0.1 1.1 89 90
- 0.69008 0 1 cbr 500 ------- 1 0.1 1.1 190 192
+ 0.691 0 1 cbr 500 ------- 1 0.1 1.1 191 193
r 0.69108 0 1 cbr 500 ------- 1 0.1 1.1 90 91
- 0.69108 0 1 cbr 500 ------- 1 0.1 1.1 191 193
+ 0.692 0 1 cbr 500 ------- 1 0.1 1.1 192 194
r 0.69208 0 1 cbr 500 ------- 1 0.1 1.1 91 92
- 0.69208 0 1 cbr 500 ------- 1 0.1 1.1 192 194
+ 0.693 0 1 cbr 500 ------- 1 0.1 1.1 193 195
r 0.69308 0 1 cbr 500 ------- 1 0.1 1.1 92 93
- 0.69308 0 1 cbr 500 ------- 1 0.1 1.1 193 195
+ 0.694 0 1 cbr 500 ------- 1 0.1 1.1 194 196
r 0.69408 0 1 cbr 500 ------- 1 0.1 1.1 93 94
- 0.69408 0 1 cbr 500 ------- 1 0.1 1.1 194 196
+ 0.695 0 1 cbr 500 ------- 1 0.1 1.1 195 197
r 0.69508 0 1 cbr 500 ------- 1 0.1 1.1 94 95
- 0.69508 0 1 cbr 500 ------- 1 0.1 1.1 195 197
+ 0.696 0 1 cbr 500 ------- 1 0.1 1.1 196 198
r 0.69608 0 1 cbr 500 ------- 1 0.1 1.1 95 96
- 0.69608 0 1 cbr 500 ------- 1 0.1 1.1 196 198
+ 0.697 0 1 cbr 500 ------- 1 0.1 1.1 197 199
r 0.69708 0 1 cbr 500 ------- 1 0.1 1.1 96 97
- 0.69708 0 1 cbr 500 ------- 1 0.1 1.1 197 199
+ 0.698 0 1 cbr 500 ------- 1 0.1 1.1 198 200
r 0.69808 0 1 cbr 500 ------- 1 0.1 1.1 97 98
- 0.69808 0 1 cbr 500 ------- 1 0.1 1.1 198 200
+ 0.699 0 1 cbr 500 ------- 1 0.1 1.1 199 201
r 0.69908 0 1 cbr 500 ------- 1 0.1 1.1 98 99
- 0.69908 0 1 cbr 500 ------- 1 0.1 1.1 199 201
+ 0.7 0 1 cbr 500 ------- 1 0.1 1.1 200 202
r 0.70008 0 1 cbr 500 ------- 1 0.1 1.1 99 100
- 0.70008 0 1 cbr 500 ------- 1 0.1 1.1 200 202
r 0.70016 1 0 ack 40 ------- 0 1.0 0.0 0 102
+ 0.70016 0 1 tcp 1040 ------- 0 0.0 1.0 1 203
+ 0.70016 0 1 tcp 1040 ------- 0 0.0 1.0 2 204
+ 0.701 0 1 cbr 500 ------- 1 0.1 1.1 201 205
r 0.70108 0 1 cbr 500 ------- 1 0.1 1.1 100 101
- 0.70108 0 1 tcp 1040 ------- 0 0.0 1.0 1 203
+ 0.702 0 1 cbr 500 ------- 1 0.1 1.1 202 206
r 0.70208 0 1 cbr 500 ------- 1 0.1 1.1 101 103
+ 0.703 0 1 cbr 500 ------- 1 0.1 1.1 203 207
r 0.70308 0 1 cbr 500 ------- 1 0.1 1.1 102 104
- 0.70316 0 1 tcp 1040 ------- 0 0.0 1.0 2 204
+ 0.704 0 1 cbr 500 ------- 1 0.1 1.1 204 208
r 0.70408 0 1 cbr 500 ------- 1 0.1 1.1 103 105
+ 0.705 0 1 cbr 500 ------- 1 0.1 1.1 205 209
r 0.70508 0 1 cbr 500 ------- 1 0.1 1.1 104 106
- 0.70524 0 1 cbr 500 ------- 1 0.1 1.1 201 205
+ 0.706 0 1 cbr 500 ------- 1 0.1 1.1 206 210
r 0.70608 0 1 cbr 500 ------- 1 0.1 1.1 105 107
- 0.70624 0 1 cbr 500 ------- 1 0.1 1.1 202 206
+ 0.707 0 1 cbr 500 ------- 1 0.1 1.1 207 211
r 0.70708 0 1 cbr 500 ------- 1 0.1 1.1 106 108
- 0.70724 0 1 cbr 500 ------- 1 0.1 1.1 203 207
+ 0.708 0 1 cbr 500 ------- 1 0.1 1.1 208 212
r 0.70808 0 1 cbr 500 ------- 1 0.1 1.1 107 109
- 0.70824 0 1 cbr 500 ------- 1 0.1 1.1 204 208
+ 0.709 0 1 cbr 500 ------- 1 0.1 1.1 209 213
r 0.70908 0 1 cbr 500 ------- 1 0.1 1.1 108 110
- 0.70924 0 1 cbr 500 ------- 1 0.1 1.1 205 209
+ 0.71 0 1 cbr 500 ------- 1 0.1 1.1 210 214
r 0.71008 0 1 cbr 500 ------- 1 0.1 1.1 109 111
- 0.71024 0 1 cbr 500 ------- 1 0.1 1.1 206 210
+ 0.711 0 1 cbr 500 ------- 1 0.1 1.1 211 215
r 0.71108 0 1 cbr 500 ------- 1 0.1 1.1 110 112
- 0.71124 0 1 cbr 500 ------- 1 0.1 1.1 207 211
+ 0.712 0 1 cbr 500 ------- 1 0.1 1.1 212 216
r 0.71208 0 1 cbr 500 ------- 1 0.1 1.1 111 113
- 0.71224 0 1 cbr 500 ------- 1 0.1 1.1 208 212
+ 0.713 0 1 cbr 500 ------- 1 0.1 1.1 213 217
r 0.71308 0 1 cbr 500 ------- 1 0.1 1.1 112 114
- 0.71324 0 1 cbr 500 ------- 1 0.1 1.1 209 213
+ 0.714 0 1 cbr 500 ------- 1 0.1 1.1 214 218
r 0.71408 0 1 cbr 500 ------- 1 0.1 1.1 113 115
- 0.71424 0 1 cbr 500 ------- 1 0.1 1.1 210 214
+ 0.715 0 1 cbr 500 ------- 1 0.1 1.1 215 219
r 0.71508 0 1 cbr 500 ------- 1 0.1 1.1 114 116
- 0.71524 0 1 cbr 500 ------- 1 0.1 1.1 211 215
+ 0.716 0 1 cbr 500 ------- 1 0.1 1.1 216 220
r 0.71608 0 1 cbr 500 ------- 1 0.1 1.1 115 117
- 0.71624 0 1 cbr 500 ------- 1 0.1 1.1 212 216
+ 0.717 0 1 cbr 500 ------- 1 0.1 1.1 217 221
r 0.71708 0 1 cbr 500 ------- 1 0.1 1.1 116 118
- 0.71724 0 1 cbr 500 ------- 1 0.1 1.1 213 217
+ 0.718 0 1 cbr 500 ------- 1 0.1 1.1 218 222
r 0.71808 0 1 cbr 500 ------- 1 0.1 1.1 117 119
- 0.71824 0 1 cbr 500 ------- 1 0.1 1.1 214 218
+ 0.719 0 1 cbr 500 ------- 1 0.1 1.1 219 223
r 0.71908 0 1 cbr 500 ------- 1 0.1 1.1 118 120
- 0.71924 0 1 cbr 500 ------- 1 0.1 1.1 215 219
+ 0.72 0 1 cbr 500 ------- 1 0.1 1.1 220 224
r 0.72008 0 1 cbr 500 ------- 1 0.1 1.1 119 121
- 0.72024 0 1 cbr 500 ------- 1 0.1 1.1 216 220
+ 0.721 0 1 cbr 500 ------- 1 0.1 1.1 221 225
r 0.72108 0 1 cbr 500 ------- 1 0.1 1.1 120 122
- 0.72124 0 1 cbr 500 ------- 1 0.1 1.1 217 221
+ 0.722 0 1 cbr 500 ------- 1 0.1 1.1 222 226
r 0.72208 0 1 cbr 500 ------- 1 0.1 1.1 121 123
- 0.72224 0 1 cbr 500 ------- 1 0.1 1.1 218 222
+ 0.723 0 1 cbr 500 ------- 1 0.1 1.1 223 227
r 0.72308 0 1 cbr 500 ------- 1 0.1 1.1 122 124
- 0.72324 0 1 cbr 500 ------- 1 0.1 1.1 219 223
+ 0.724 0 1 cbr 500 ------- 1 0.1 1.1 224 228
r 0.72408 0 1 cbr 500 ------- 1 0.1 1.1 123 125
- 0.72424 0 1 cbr 500 ------- 1 0.1 1.1 220 224
+ 0.725 0 1 cbr 500 ------- 1 0.1 1.1 225 229
r 0.72508 0 1 cbr 500 ------- 1 0.1 1.1 124 126
- 0.72524 0 1 cbr 500 ------- 1 0.1 1.1 221 225
+ 0.726 0 1 cbr 500 ------- 1 0.1 1.1 226 230
r 0.72608 0 1 cbr 500 ------- 1 0.1 1.1 125 127
- 0.72624 0 1 cbr 500 ------- 1 0.1 1.1 222 226
+ 0.727 0 1 cbr 500 ------- 1 0.1 1.1 227 231
r 0.72708 0 1 cbr 500 ------- 1 0.1 1.1 126 128
- 0.72724 0 1 cbr 500 ------- 1 0.1 1.1 223 227
+ 0.728 0 1 cbr 500 ------- 1 0.1 1.1 228 232
r 0.72808 0 1 cbr 500 ------- 1 0.1 1.1 127 129
- 0.72824 0 1 cbr 500 ------- 1 0.1 1.1 224 228
+ 0.729 0 1 cbr 500 ------- 1 0.1 1.1 229 233
r 0.72908 0 1 cbr 500 ------- 1 0.1 1.1 128 130
- 0.72924 0 1 cbr 500 ------- 1 0.1 1.1 225 229
+ 0.73 0 1 cbr 500 ------- 1 0.1 1.1 230 234
r 0.73008 0 1 cbr 500 ------- 1 0.1 1.1 129 131
- 0.73024 0 1 cbr 500 ------- 1 0.1 1.1 226 230
+ 0.731 0 1 cbr 500 ------- 1 0.1 1.1 231 235
r 0.73108 0 1 cbr 500 ------- 1 0.1 1.1 130 132
- 0.73124 0 1 cbr 500 ------- 1 0.1 1.1 227 231
+ 0.732 0 1 cbr 500 ------- 1 0.1 1.1 232 236
r 0.73208 0 1 cbr 500 ------- 1 0.1 1.1 131 133
- 0.73224 0 1 cbr 500 ------- 1 0.1 1.1 228 232
+ 0.733 0 1 cbr 500 ------- 1 0.1 1.1 233 237
r 0.73308 0 1 cbr 500 ------- 1 0.1 1.1 132 134
- 0.73324 0 1 cbr 500 ------- 1 0.1 1.1 229 233
+ 0.734 0 1 cbr 500 ------- 1 0.1 1.1 234 238
r 0.73408 0 1 cbr 500 ------- 1 0.1 1.1 133 135
- 0.73424 0 1 cbr 500 ------- 1 0.1 1.1 230 234
+ 0.735 0 1 cbr 500 ------- 1 0.1 1.1 235 239
r 0.73508 0 1 cbr 500 ------- 1 0.1 1.1 134 136
- 0.73524 0 1 cbr 500 ------- 1 0.1 1.1 231 235
+ 0.736 0 1 cbr 500 ------- 1 0.1 1.1 236 240
r 0.73608 0 1 cbr 500 ------- 1 0.1 1.1 135 137
- 0.73624 0 1 cbr 500 ------- 1 0.1 1.1 232 236
+ 0.737 0 1 cbr 500 ------- 1 0.1 1.1 237 241
r 0.73708 0 1 cbr 500 ------- 1 0.1 1.1 136 138
- 0.73724 0 1 cbr 500 ------- 1 0.1 1.1 233 237
+ 0.738 0 1 cbr 500 ------- 1 0.1 1.1 238 242
r 0.73808 0 1 cbr 500 ------- 1 0.1 1.1 137 139
- 0.73824 0 1 cbr 500 ------- 1 0.1 1.1 234 238
+ 0.739 0 1 cbr 500 ------- 1 0.1 1.1 239 243
r 0.73908 0 1 cbr 500 ------- 1 0.1 1.1 138 140
- 0.73924 0 1 cbr 500 ------- 1 0.1 1.1 235 239
+ 0.74 0 1 cbr 500 ------- 1 0.1 1.1 240 244
r 0.74008 0 1 cbr 500 ------- 1 0.1 1.1 139 141
- 0.74024 0 1 cbr 500 ------- 1 0.1 1.1 236 240
+ 0.741 0 1 cbr 500 ------- 1 0.1 1.1 241 245
r 0.74108 0 1 cbr 500 ------- 1 0.1 1.1 140 142
- 0.74124 0 1 cbr 500 ------- 1 0.1 1.1 237 241
+ 0.742 0 1 cbr 500 ------- 1 0.1 1.1 242 246
r 0.74208 0 1 cbr 500 ------- 1 0.1 1.1 141 143
- 0.74224 0 1 cbr 500 ------- 1 0.1 1.1 238 242
+ 0.743 0 1 cbr 500 ------- 1 0.1 1.1 243 247
r 0.74308 0 1 cbr 500 ------- 1 0.1 1.1 142 144
- 0.74324 0 1 cbr 500 ------- 1 0.1 1.1 239 243
+ 0.744 0 1 cbr 500 ------- 1 0.1 1.1 244 248
r 0.74408 0 1 cbr 500 ------- 1 0.1 1.1 143 145
- 0.74424 0 1 cbr 500 ------- 1 0.1 1.1 240 244
+ 0.745 0 1 cbr 500 ------- 1 0.1 1.1 245 249
r 0.74508 0 1 cbr 500 ------- 1 0.1 1.1 144 146
- 0.74524 0 1 cbr 500 ------- 1 0.1 1.1 241 245
+ 0.746 0 1 cbr 500 ------- 1 0.1 1.1 246 250
r 0.74608 0 1 cbr 500 ------- 1 0.1 1.1 145 147
- 0.74624 0 1 cbr 500 ------- 1 0.1 1.1 242 246
+ 0.747 0 1 cbr 500 ------- 1 0.1 1.1 247 251
r 0.74708 0 1 cbr 500 ------- 1 0.1 1.1 146 148
- 0.74724 0 1 cbr 500 ------- 1 0.1 1.1 243 247
+ 0.748 0 1 cbr 500 ------- 1 0.1 1.1 248 252